V -t * -v 1.0a5 -a 0
A -t * -n 1 -p 0 -o 0x7fffffff -c 30 -a 1
A -t * -h 1 -m 1073741823 -s 0
c -t * -i 1 -n Red
n -t * -a 0 -s 0 -S UP -v circle -c black -i black
n -t * -a 1 -s 1 -S UP -v circle -c black -i black
n -t * -a 2 -s 2 -S UP -v circle -c black -i black
l -t * -s 0 -d 1 -S UP -r 1000000 -D 0.050000000000000003 -c black -o right
l -t * -s 1 -d 2 -S UP -r 100000 -D 0.0050000000000000001 -c black -o right
q -t * -s 2 -d 1 -a 0.5
q -t * -s 1 -d 2 -a 0.5
+ -t 0.5 -s 0 -d 1 -p tcp -e 40 -c 1 -i 0 -a 1 -x {0.0 2.0 0 ------- null}
- -t 0.5 -s 0 -d 1 -p tcp -e 40 -c 1 -i 0 -a 1 -x {0.0 2.0 0 ------- null}
h -t 0.5 -s 0 -d 1 -p tcp -e 40 -c 1 -i 0 -a 1 -x {0.0 2.0 -1 ------- null}
r -t 0.55032 -s 0 -d 1 -p tcp -e 40 -c 1 -i 0 -a 1 -x {0.0 2.0 0 ------- null}
+ -t 0.55032 -s 1 -d 2 -p tcp -e 40 -c 1 -i 0 -a 1 -x {0.0 2.0 0 ------- null}
- -t 0.55032 -s 1 -d 2 -p tcp -e 40 -c 1 -i 0 -a 1 -x {0.0 2.0 0 ------- null}
h -t 0.55032 -s 1 -d 2 -p tcp -e 40 -c 1 -i 0 -a 1 -x {0.0 2.0 -1 ------- null}
r -t 0.55852 -s 1 -d 2 -p tcp -e 40 -c 1 -i 0 -a 1 -x {0.0 2.0 0 ------- null}
+ -t 0.55852 -s 2 -d 1 -p ack -e 40 -c 1 -i 1 -a 1 -x {2.0 0.0 0 ------- null}
- -t 0.55852 -s 2 -d 1 -p ack -e 40 -c 1 -i 1 -a 1 -x {2.0 0.0 0 ------- null}
h -t 0.55852 -s 2 -d 1 -p ack -e 40 -c 1 -i 1 -a 1 -x {2.0 0.0 -1 ------- null}
r -t 0.56672 -s 2 -d 1 -p ack -e 40 -c 1 -i 1 -a 1 -x {2.0 0.0 0 ------- null}
+ -t 0.56672 -s 1 -d 0 -p ack -e 40 -c 1 -i 1 -a 1 -x {2.0 0.0 0 ------- null}
- -t 0.56672 -s 1 -d 0 -p ack -e 40 -c 1 -i 1 -a 1 -x {2.0 0.0 0 ------- null}
h -t 0.56672 -s 1 -d 0 -p ack -e 40 -c 1 -i 1 -a 1 -x {2.0 0.0 -1 ------- null}
r -t 0.61704 -s 1 -d 0 -p ack -e 40 -c 1 -i 1 -a 1 -x {2.0 0.0 0 ------- null}
+ -t 0.61704 -s 0 -d 1 -p tcp -e 1040 -c 1 -i 2 -a 1 -x {0.0 2.0 1 ------- null}
- -t 0.61704 -s 0 -d 1 -p tcp -e 1040 -c 1 -i 2 -a 1 -x {0.0 2.0 1 ------- null}
h -t 0.61704 -s 0 -d 1 -p tcp -e 1040 -c 1 -i 2 -a 1 -x {0.0 2.0 -1 ------- null}
+ -t 0.61704 -s 0 -d 1 -p tcp -e 1040 -c 1 -i 3 -a 1 -x {0.0 2.0 2 ------- null}
- -t 0.62536 -s 0 -d 1 -p tcp -e 1040 -c 1 -i 3 -a 1 -x {0.0 2.0 2 ------- null}
h -t 0.62536 -s 0 -d 1 -p tcp -e 1040 -c 1 -i 3 -a 1 -x {0.0 2.0 -1 ------- null}
r -t 0.67536 -s 0 -d 1 -p tcp -e 1040 -c 1 -i 2 -a 1 -x {0.0 2.0 1 ------- null}
+ -t 0.67536 -s 1 -d 2 -p tcp -e 1040 -c 1 -i 2 -a 1 -x {0.0 2.0 1 ------- null}
- -t 0.67536 -s 1 -d 2 -p tcp -e 1040 -c 1 -i 2 -a 1 -x {0.0 2.0 1 ------- null}
h -t 0.67536 -s 1 -d 2 -p tcp -e 1040 -c 1 -i 2 -a 1 -x {0.0 2.0 -1 ------- null}
r -t 0.68368 -s 0 -d 1 -p tcp -e 1040 -c 1 -i 3 -a 1 -x {0.0 2.0 2 ------- null}
+ -t 0.68368 -s 1 -d 2 -p tcp -e 1040 -c 1 -i 3 -a 1 -x {0.0 2.0 2 ------- null}
- -t 0.75856 -s 1 -d 2 -p tcp -e 1040 -c 1 -i 3 -a 1 -x {0.0 2.0 2 ------- null}
h -t 0.75856 -s 1 -d 2 -p tcp -e 1040 -c 1 -i 3 -a 1 -x {0.0 2.0 -1 ------- null}
r -t 0.76356 -s 1 -d 2 -p tcp -e 1040 -c 1 -i 2 -a 1 -x {0.0 2.0 1 ------- null}
+ -t 0.76356 -s 2 -d 1 -p ack -e 40 -c 1 -i 4 -a 1 -x {2.0 0.0 1 ------- null}
- -t 0.76356 -s 2 -d 1 -p ack -e 40 -c 1 -i 4 -a 1 -x {2.0 0.0 1 ------- null}
h -t 0.76356 -s 2 -d 1 -p ack -e 40 -c 1 -i 4 -a 1 -x {2.0 0.0 -1 ------- null}
r -t 0.77176 -s 2 -d 1 -p ack -e 40 -c 1 -i 4 -a 1 -x {2.0 0.0 1 ------- null}
+ -t 0.77176 -s 1 -d 0 -p ack -e 40 -c 1 -i 4 -a 1 -x {2.0 0.0 1 ------- null}
- -t 0.77176 -s 1 -d 0 -p ack -e 40 -c 1 -i 4 -a 1 -x {2.0 0.0 1 ------- null}
h -t 0.77176 -s 1 -d 0 -p ack -e 40 -c 1 -i 4 -a 1 -x {2.0 0.0 -1 ------- null}
r -t 0.82208 -s 1 -d 0 -p ack -e 40 -c 1 -i 4 -a 1 -x {2.0 0.0 1 ------- null}
+ -t 0.82208 -s 0 -d 1 -p tcp -e 1040 -c 1 -i 5 -a 1 -x {0.0 2.0 3 ------- null}
- -t 0.82208 -s 0 -d 1 -p tcp -e 1040 -c 1 -i 5 -a 1 -x {0.0 2.0 3 ------- null}
h -t 0.82208 -s 0 -d 1 -p tcp -e 1040 -c 1 -i 5 -a 1 -x {0.0 2.0 -1 ------- null}
+ -t 0.82208 -s 0 -d 1 -p tcp -e 1040 -c 1 -i 6 -a 1 -x {0.0 2.0 4 ------- null}
- -t 0.8304 -s 0 -d 1 -p tcp -e 1040 -c 1 -i 6 -a 1 -x {0.0 2.0 4 ------- null}
h -t 0.8304 -s 0 -d 1 -p tcp -e 1040 -c 1 -i 6 -a 1 -x {0.0 2.0 -1 ------- null}
r -t 0.84676 -s 1 -d 2 -p tcp -e 1040 -c 1 -i 3 -a 1 -x {0.0 2.0 2 ------- null}
+ -t 0.84676 -s 2 -d 1 -p ack -e 40 -c 1 -i 7 -a 1 -x {2.0 0.0 2 ------- null}
- -t 0.84676 -s 2 -d 1 -p ack -e 40 -c 1 -i 7 -a 1 -x {2.0 0.0 2 ------- null}
h -t 0.84676 -s 2 -d 1 -p ack -e 40 -c 1 -i 7 -a 1 -x {2.0 0.0 -1 ------- null}
r -t 0.85496 -s 2 -d 1 -p ack -e 40 -c 1 -i 7 -a 1 -x {2.0 0.0 2 ------- null}
+ -t 0.85496 -s 1 -d 0 -p ack -e 40 -c 1 -i 7 -a 1 -x {2.0 0.0 2 ------- null}
- -t 0.85496 -s 1 -d 0 -p ack -e 40 -c 1 -i 7 -a 1 -x {2.0 0.0 2 ------- null}
h -t 0.85496 -s 1 -d 0 -p ack -e 40 -c 1 -i 7 -a 1 -x {2.0 0.0 -1 ------- null}
r -t 0.8804 -s 0 -d 1 -p tcp -e 1040 -c 1 -i 5 -a 1 -x {0.0 2.0 3 ------- null}
+ -t 0.8804 -s 1 -d 2 -p tcp -e 1040 -c 1 -i 5 -a 1 -x {0.0 2.0 3 ------- null}
- -t 0.8804 -s 1 -d 2 -p tcp -e 1040 -c 1 -i 5 -a 1 -x {0.0 2.0 3 ------- null}
h -t 0.8804 -s 1 -d 2 -p tcp -e 1040 -c 1 -i 5 -a 1 -x {0.0 2.0 -1 ------- null}
r -t 0.88872 -s 0 -d 1 -p tcp -e 1040 -c 1 -i 6 -a 1 -x {0.0 2.0 4 ------- null}
+ -t 0.88872 -s 1 -d 2 -p tcp -e 1040 -c 1 -i 6 -a 1 -x {0.0 2.0 4 ------- null}
r -t 0.90528 -s 1 -d 0 -p ack -e 40 -c 1 -i 7 -a 1 -x {2.0 0.0 2 ------- null}
+ -t 0.90528 -s 0 -d 1 -p tcp -e 1040 -c 1 -i 8 -a 1 -x {0.0 2.0 5 ------- null}
- -t 0.90528 -s 0 -d 1 -p tcp -e 1040 -c 1 -i 8 -a 1 -x {0.0 2.0 5 ------- null}
h -t 0.90528 -s 0 -d 1 -p tcp -e 1040 -c 1 -i 8 -a 1 -x {0.0 2.0 -1 ------- null}
+ -t 0.90528 -s 0 -d 1 -p tcp -e 1040 -c 1 -i 9 -a 1 -x {0.0 2.0 6 ------- null}
- -t 0.9136 -s 0 -d 1 -p tcp -e 1040 -c 1 -i 9 -a 1 -x {0.0 2.0 6 ------- null}
h -t 0.9136 -s 0 -d 1 -p tcp -e 1040 -c 1 -i 9 -a 1 -x {0.0 2.0 -1 ------- null}
- -t 0.9636 -s 1 -d 2 -p tcp -e 1040 -c 1 -i 6 -a 1 -x {0.0 2.0 4 ------- null}
h -t 0.9636 -s 1 -d 2 -p tcp -e 1040 -c 1 -i 6 -a 1 -x {0.0 2.0 -1 ------- null}
r -t 0.9636 -s 0 -d 1 -p tcp -e 1040 -c 1 -i 8 -a 1 -x {0.0 2.0 5 ------- null}
+ -t 0.9636 -s 1 -d 2 -p tcp -e 1040 -c 1 -i 8 -a 1 -x {0.0 2.0 5 ------- null}
r -t 0.9686 -s 1 -d 2 -p tcp -e 1040 -c 1 -i 5 -a 1 -x {0.0 2.0 3 ------- null}
+ -t 0.9686 -s 2 -d 1 -p ack -e 40 -c 1 -i 10 -a 1 -x {2.0 0.0 3 ------- null}
- -t 0.9686 -s 2 -d 1 -p ack -e 40 -c 1 -i 10 -a 1 -x {2.0 0.0 3 ------- null}
h -t 0.9686 -s 2 -d 1 -p ack -e 40 -c 1 -i 10 -a 1 -x {2.0 0.0 -1 ------- null}
r -t 0.97192 -s 0 -d 1 -p tcp -e 1040 -c 1 -i 9 -a 1 -x {0.0 2.0 6 ------- null}
+ -t 0.97192 -s 1 -d 2 -p tcp -e 1040 -c 1 -i 9 -a 1 -x {0.0 2.0 6 ------- null}
r -t 0.9768 -s 2 -d 1 -p ack -e 40 -c 1 -i 10 -a 1 -x {2.0 0.0 3 ------- null}
+ -t 0.9768 -s 1 -d 0 -p ack -e 40 -c 1 -i 10 -a 1 -x {2.0 0.0 3 ------- null}
- -t 0.9768 -s 1 -d 0 -p ack -e 40 -c 1 -i 10 -a 1 -x {2.0 0.0 3 ------- null}
h -t 0.9768 -s 1 -d 0 -p ack -e 40 -c 1 -i 10 -a 1 -x {2.0 0.0 -1 ------- null}
r -t 1.02712 -s 1 -d 0 -p ack -e 40 -c 1 -i 10 -a 1 -x {2.0 0.0 3 ------- null}
+ -t 1.02712 -s 0 -d 1 -p tcp -e 1040 -c 1 -i 11 -a 1 -x {0.0 2.0 7 ------- null}
- -t 1.02712 -s 0 -d 1 -p tcp -e 1040 -c 1 -i 11 -a 1 -x {0.0 2.0 7 ------- null}
h -t 1.02712 -s 0 -d 1 -p tcp -e 1040 -c 1 -i 11 -a 1 -x {0.0 2.0 -1 ------- null}
+ -t 1.02712 -s 0 -d 1 -p tcp -e 1040 -c 1 -i 12 -a 1 -x {0.0 2.0 8 ------- null}
- -t 1.03544 -s 0 -d 1 -p tcp -e 1040 -c 1 -i 12 -a 1 -x {0.0 2.0 8 ------- null}
h -t 1.03544 -s 0 -d 1 -p tcp -e 1040 -c 1 -i 12 -a 1 -x {0.0 2.0 -1 ------- null}
- -t 1.0468 -s 1 -d 2 -p tcp -e 1040 -c 1 -i 8 -a 1 -x {0.0 2.0 5 ------- null}
h -t 1.0468 -s 1 -d 2 -p tcp -e 1040 -c 1 -i 8 -a 1 -x {0.0 2.0 -1 ------- null}
r -t 1.0518 -s 1 -d 2 -p tcp -e 1040 -c 1 -i 6 -a 1 -x {0.0 2.0 4 ------- null}
+ -t 1.0518 -s 2 -d 1 -p ack -e 40 -c 1 -i 13 -a 1 -x {2.0 0.0 4 ------- null}
- -t 1.0518 -s 2 -d 1 -p ack -e 40 -c 1 -i 13 -a 1 -x {2.0 0.0 4 ------- null}
h -t 1.0518 -s 2 -d 1 -p ack -e 40 -c 1 -i 13 -a 1 -x {2.0 0.0 -1 ------- null}
r -t 1.06 -s 2 -d 1 -p ack -e 40 -c 1 -i 13 -a 1 -x {2.0 0.0 4 ------- null}
+ -t 1.06 -s 1 -d 0 -p ack -e 40 -c 1 -i 13 -a 1 -x {2.0 0.0 4 ------- null}
- -t 1.06 -s 1 -d 0 -p ack -e 40 -c 1 -i 13 -a 1 -x {2.0 0.0 4 ------- null}
h -t 1.06 -s 1 -d 0 -p ack -e 40 -c 1 -i 13 -a 1 -x {2.0 0.0 -1 ------- null}
r -t 1.08544 -s 0 -d 1 -p tcp -e 1040 -c 1 -i 11 -a 1 -x {0.0 2.0 7 ------- null}
+ -t 1.08544 -s 1 -d 2 -p tcp -e 1040 -c 1 -i 11 -a 1 -x {0.0 2.0 7 ------- null}
r -t 1.09376 -s 0 -d 1 -p tcp -e 1040 -c 1 -i 12 -a 1 -x {0.0 2.0 8 ------- null}
+ -t 1.09376 -s 1 -d 2 -p tcp -e 1040 -c 1 -i 12 -a 1 -x {0.0 2.0 8 ------- null}
r -t 1.11032 -s 1 -d 0 -p ack -e 40 -c 1 -i 13 -a 1 -x {2.0 0.0 4 ------- null}
+ -t 1.11032 -s 0 -d 1 -p tcp -e 1040 -c 1 -i 14 -a 1 -x {0.0 2.0 9 ------- null}
- -t 1.11032 -s 0 -d 1 -p tcp -e 1040 -c 1 -i 14 -a 1 -x {0.0 2.0 9 ------- null}
h -t 1.11032 -s 0 -d 1 -p tcp -e 1040 -c 1 -i 14 -a 1 -x {0.0 2.0 -1 ------- null}
+ -t 1.11032 -s 0 -d 1 -p tcp -e 1040 -c 1 -i 15 -a 1 -x {0.0 2.0 10 ------- null}
- -t 1.11864 -s 0 -d 1 -p tcp -e 1040 -c 1 -i 15 -a 1 -x {0.0 2.0 10 ------- null}
h -t 1.11864 -s 0 -d 1 -p tcp -e 1040 -c 1 -i 15 -a 1 -x {0.0 2.0 -1 ------- null}
- -t 1.13 -s 1 -d 2 -p tcp -e 1040 -c 1 -i 9 -a 1 -x {0.0 2.0 6 ------- null}
h -t 1.13 -s 1 -d 2 -p tcp -e 1040 -c 1 -i 9 -a 1 -x {0.0 2.0 -1 ------- null}
r -t 1.135 -s 1 -d 2 -p tcp -e 1040 -c 1 -i 8 -a 1 -x {0.0 2.0 5 ------- null}
+ -t 1.135 -s 2 -d 1 -p ack -e 40 -c 1 -i 16 -a 1 -x {2.0 0.0 5 ------- null}
- -t 1.135 -s 2 -d 1 -p ack -e 40 -c 1 -i 16 -a 1 -x {2.0 0.0 5 ------- null}
h -t 1.135 -s 2 -d 1 -p ack -e 40 -c 1 -i 16 -a 1 -x {2.0 0.0 -1 ------- null}
r -t 1.1432 -s 2 -d 1 -p ack -e 40 -c 1 -i 16 -a 1 -x {2.0 0.0 5 ------- null}
+ -t 1.1432 -s 1 -d 0 -p ack -e 40 -c 1 -i 16 -a 1 -x {2.0 0.0 5 ------- null}
- -t 1.1432 -s 1 -d 0 -p ack -e 40 -c 1 -i 16 -a 1 -x {2.0 0.0 5 ------- null}
h -t 1.1432 -s 1 -d 0 -p ack -e 40 -c 1 -i 16 -a 1 -x {2.0 0.0 -1 ------- null}
r -t 1.16864 -s 0 -d 1 -p tcp -e 1040 -c 1 -i 14 -a 1 -x {0.0 2.0 9 ------- null}
+ -t 1.16864 -s 1 -d 2 -p tcp -e 1040 -c 1 -i 14 -a 1 -x {0.0 2.0 9 ------- null}
r -t 1.17696 -s 0 -d 1 -p tcp -e 1040 -c 1 -i 15 -a 1 -x {0.0 2.0 10 ------- null}
+ -t 1.17696 -s 1 -d 2 -p tcp -e 1040 -c 1 -i 15 -a 1 -x {0.0 2.0 10 ------- null}
r -t 1.19352 -s 1 -d 0 -p ack -e 40 -c 1 -i 16 -a 1 -x {2.0 0.0 5 ------- null}
+ -t 1.19352 -s 0 -d 1 -p tcp -e 1040 -c 1 -i 17 -a 1 -x {0.0 2.0 11 ------- null}
- -t 1.19352 -s 0 -d 1 -p tcp -e 1040 -c 1 -i 17 -a 1 -x {0.0 2.0 11 ------- null}
h -t 1.19352 -s 0 -d 1 -p tcp -e 1040 -c 1 -i 17 -a 1 -x {0.0 2.0 -1 ------- null}
+ -t 1.19352 -s 0 -d 1 -p tcp -e 1040 -c 1 -i 18 -a 1 -x {0.0 2.0 12 ------- null}
- -t 1.20184 -s 0 -d 1 -p tcp -e 1040 -c 1 -i 18 -a 1 -x {0.0 2.0 12 ------- null}
h -t 1.20184 -s 0 -d 1 -p tcp -e 1040 -c 1 -i 18 -a 1 -x {0.0 2.0 -1 ------- null}
- -t 1.2132 -s 1 -d 2 -p tcp -e 1040 -c 1 -i 11 -a 1 -x {0.0 2.0 7 ------- null}
h -t 1.2132 -s 1 -d 2 -p tcp -e 1040 -c 1 -i 11 -a 1 -x {0.0 2.0 -1 ------- null}
r -t 1.2182 -s 1 -d 2 -p tcp -e 1040 -c 1 -i 9 -a 1 -x {0.0 2.0 6 ------- null}
+ -t 1.2182 -s 2 -d 1 -p ack -e 40 -c 1 -i 19 -a 1 -x {2.0 0.0 6 ------- null}
- -t 1.2182 -s 2 -d 1 -p ack -e 40 -c 1 -i 19 -a 1 -x {2.0 0.0 6 ------- null}
h -t 1.2182 -s 2 -d 1 -p ack -e 40 -c 1 -i 19 -a 1 -x {2.0 0.0 -1 ------- null}
r -t 1.2264 -s 2 -d 1 -p ack -e 40 -c 1 -i 19 -a 1 -x {2.0 0.0 6 ------- null}
+ -t 1.2264 -s 1 -d 0 -p ack -e 40 -c 1 -i 19 -a 1 -x {2.0 0.0 6 ------- null}
- -t 1.2264 -s 1 -d 0 -p ack -e 40 -c 1 -i 19 -a 1 -x {2.0 0.0 6 ------- null}
h -t 1.2264 -s 1 -d 0 -p ack -e 40 -c 1 -i 19 -a 1 -x {2.0 0.0 -1 ------- null}
r -t 1.25184 -s 0 -d 1 -p tcp -e 1040 -c 1 -i 17 -a 1 -x {0.0 2.0 11 ------- null}
+ -t 1.25184 -s 1 -d 2 -p tcp -e 1040 -c 1 -i 17 -a 1 -x {0.0 2.0 11 ------- null}
r -t 1.26016 -s 0 -d 1 -p tcp -e 1040 -c 1 -i 18 -a 1 -x {0.0 2.0 12 ------- null}
+ -t 1.26016 -s 1 -d 2 -p tcp -e 1040 -c 1 -i 18 -a 1 -x {0.0 2.0 12 ------- null}
r -t 1.27672 -s 1 -d 0 -p ack -e 40 -c 1 -i 19 -a 1 -x {2.0 0.0 6 ------- null}
+ -t 1.27672 -s 0 -d 1 -p tcp -e 1040 -c 1 -i 20 -a 1 -x {0.0 2.0 13 ------- null}
- -t 1.27672 -s 0 -d 1 -p tcp -e 1040 -c 1 -i 20 -a 1 -x {0.0 2.0 13 ------- null}
h -t 1.27672 -s 0 -d 1 -p tcp -e 1040 -c 1 -i 20 -a 1 -x {0.0 2.0 -1 ------- null}
+ -t 1.27672 -s 0 -d 1 -p tcp -e 1040 -c 1 -i 21 -a 1 -x {0.0 2.0 14 ------- null}
- -t 1.28504 -s 0 -d 1 -p tcp -e 1040 -c 1 -i 21 -a 1 -x {0.0 2.0 14 ------- null}
h -t 1.28504 -s 0 -d 1 -p tcp -e 1040 -c 1 -i 21 -a 1 -x {0.0 2.0 -1 ------- null}
- -t 1.2964 -s 1 -d 2 -p tcp -e 1040 -c 1 -i 12 -a 1 -x {0.0 2.0 8 ------- null}
h -t 1.2964 -s 1 -d 2 -p tcp -e 1040 -c 1 -i 12 -a 1 -x {0.0 2.0 -1 ------- null}
r -t 1.3014 -s 1 -d 2 -p tcp -e 1040 -c 1 -i 11 -a 1 -x {0.0 2.0 7 ------- null}
+ -t 1.3014 -s 2 -d 1 -p ack -e 40 -c 1 -i 22 -a 1 -x {2.0 0.0 7 ------- null}
- -t 1.3014 -s 2 -d 1 -p ack -e 40 -c 1 -i 22 -a 1 -x {2.0 0.0 7 ------- null}
h -t 1.3014 -s 2 -d 1 -p ack -e 40 -c 1 -i 22 -a 1 -x {2.0 0.0 -1 ------- null}
r -t 1.3096 -s 2 -d 1 -p ack -e 40 -c 1 -i 22 -a 1 -x {2.0 0.0 7 ------- null}
+ -t 1.3096 -s 1 -d 0 -p ack -e 40 -c 1 -i 22 -a 1 -x {2.0 0.0 7 ------- null}
- -t 1.3096 -s 1 -d 0 -p ack -e 40 -c 1 -i 22 -a 1 -x {2.0 0.0 7 ------- null}
h -t 1.3096 -s 1 -d 0 -p ack -e 40 -c 1 -i 22 -a 1 -x {2.0 0.0 -1 ------- null}
r -t 1.33504 -s 0 -d 1 -p tcp -e 1040 -c 1 -i 20 -a 1 -x {0.0 2.0 13 ------- null}
+ -t 1.33504 -s 1 -d 2 -p tcp -e 1040 -c 1 -i 20 -a 1 -x {0.0 2.0 13 ------- null}
r -t 1.34336 -s 0 -d 1 -p tcp -e 1040 -c 1 -i 21 -a 1 -x {0.0 2.0 14 ------- null}
+ -t 1.34336 -s 1 -d 2 -p tcp -e 1040 -c 1 -i 21 -a 1 -x {0.0 2.0 14 ------- null}
r -t 1.35992 -s 1 -d 0 -p ack -e 40 -c 1 -i 22 -a 1 -x {2.0 0.0 7 ------- null}
+ -t 1.35992 -s 0 -d 1 -p tcp -e 1040 -c 1 -i 23 -a 1 -x {0.0 2.0 15 ------- null}
- -t 1.35992 -s 0 -d 1 -p tcp -e 1040 -c 1 -i 23 -a 1 -x {0.0 2.0 15 ------- null}
h -t 1.35992 -s 0 -d 1 -p tcp -e 1040 -c 1 -i 23 -a 1 -x {0.0 2.0 -1 ------- null}
+ -t 1.35992 -s 0 -d 1 -p tcp -e 1040 -c 1 -i 24 -a 1 -x {0.0 2.0 16 ------- null}
- -t 1.36824 -s 0 -d 1 -p tcp -e 1040 -c 1 -i 24 -a 1 -x {0.0 2.0 16 ------- null}
h -t 1.36824 -s 0 -d 1 -p tcp -e 1040 -c 1 -i 24 -a 1 -x {0.0 2.0 -1 ------- null}
- -t 1.3796 -s 1 -d 2 -p tcp -e 1040 -c 1 -i 14 -a 1 -x {0.0 2.0 9 ------- null}
h -t 1.3796 -s 1 -d 2 -p tcp -e 1040 -c 1 -i 14 -a 1 -x {0.0 2.0 -1 ------- null}
r -t 1.3846 -s 1 -d 2 -p tcp -e 1040 -c 1 -i 12 -a 1 -x {0.0 2.0 8 ------- null}
+ -t 1.3846 -s 2 -d 1 -p ack -e 40 -c 1 -i 25 -a 1 -x {2.0 0.0 8 ------- null}
- -t 1.3846 -s 2 -d 1 -p ack -e 40 -c 1 -i 25 -a 1 -x {2.0 0.0 8 ------- null}
h -t 1.3846 -s 2 -d 1 -p ack -e 40 -c 1 -i 25 -a 1 -x {2.0 0.0 -1 ------- null}
r -t 1.3928 -s 2 -d 1 -p ack -e 40 -c 1 -i 25 -a 1 -x {2.0 0.0 8 ------- null}
+ -t 1.3928 -s 1 -d 0 -p ack -e 40 -c 1 -i 25 -a 1 -x {2.0 0.0 8 ------- null}
- -t 1.3928 -s 1 -d 0 -p ack -e 40 -c 1 -i 25 -a 1 -x {2.0 0.0 8 ------- null}
h -t 1.3928 -s 1 -d 0 -p ack -e 40 -c 1 -i 25 -a 1 -x {2.0 0.0 -1 ------- null}
r -t 1.41824 -s 0 -d 1 -p tcp -e 1040 -c 1 -i 23 -a 1 -x {0.0 2.0 15 ------- null}
+ -t 1.41824 -s 1 -d 2 -p tcp -e 1040 -c 1 -i 23 -a 1 -x {0.0 2.0 15 ------- null}
r -t 1.42656 -s 0 -d 1 -p tcp -e 1040 -c 1 -i 24 -a 1 -x {0.0 2.0 16 ------- null}
+ -t 1.42656 -s 1 -d 2 -p tcp -e 1040 -c 1 -i 24 -a 1 -x {0.0 2.0 16 ------- null}
r -t 1.44312 -s 1 -d 0 -p ack -e 40 -c 1 -i 25 -a 1 -x {2.0 0.0 8 ------- null}
+ -t 1.44312 -s 0 -d 1 -p tcp -e 1040 -c 1 -i 26 -a 1 -x {0.0 2.0 17 ------- null}
- -t 1.44312 -s 0 -d 1 -p tcp -e 1040 -c 1 -i 26 -a 1 -x {0.0 2.0 17 ------- null}
h -t 1.44312 -s 0 -d 1 -p tcp -e 1040 -c 1 -i 26 -a 1 -x {0.0 2.0 -1 ------- null}
+ -t 1.44312 -s 0 -d 1 -p tcp -e 1040 -c 1 -i 27 -a 1 -x {0.0 2.0 18 ------- null}
- -t 1.45144 -s 0 -d 1 -p tcp -e 1040 -c 1 -i 27 -a 1 -x {0.0 2.0 18 ------- null}
h -t 1.45144 -s 0 -d 1 -p tcp -e 1040 -c 1 -i 27 -a 1 -x {0.0 2.0 -1 ------- null}
- -t 1.4628 -s 1 -d 2 -p tcp -e 1040 -c 1 -i 15 -a 1 -x {0.0 2.0 10 ------- null}
h -t 1.4628 -s 1 -d 2 -p tcp -e 1040 -c 1 -i 15 -a 1 -x {0.0 2.0 -1 ------- null}
r -t 1.4678 -s 1 -d 2 -p tcp -e 1040 -c 1 -i 14 -a 1 -x {0.0 2.0 9 ------- null}
+ -t 1.4678 -s 2 -d 1 -p ack -e 40 -c 1 -i 28 -a 1 -x {2.0 0.0 9 ------- null}
- -t 1.4678 -s 2 -d 1 -p ack -e 40 -c 1 -i 28 -a 1 -x {2.0 0.0 9 ------- null}
h -t 1.4678 -s 2 -d 1 -p ack -e 40 -c 1 -i 28 -a 1 -x {2.0 0.0 -1 ------- null}
r -t 1.476 -s 2 -d 1 -p ack -e 40 -c 1 -i 28 -a 1 -x {2.0 0.0 9 ------- null}
+ -t 1.476 -s 1 -d 0 -p ack -e 40 -c 1 -i 28 -a 1 -x {2.0 0.0 9 ------- null}
- -t 1.476 -s 1 -d 0 -p ack -e 40 -c 1 -i 28 -a 1 -x {2.0 0.0 9 ------- null}
h -t 1.476 -s 1 -d 0 -p ack -e 40 -c 1 -i 28 -a 1 -x {2.0 0.0 -1 ------- null}
r -t 1.50144 -s 0 -d 1 -p tcp -e 1040 -c 1 -i 26 -a 1 -x {0.0 2.0 17 ------- null}
+ -t 1.50144 -s 1 -d 2 -p tcp -e 1040 -c 1 -i 26 -a 1 -x {0.0 2.0 17 ------- null}
r -t 1.50976 -s 0 -d 1 -p tcp -e 1040 -c 1 -i 27 -a 1 -x {0.0 2.0 18 ------- null}
+ -t 1.50976 -s 1 -d 2 -p tcp -e 1040 -c 1 -i 27 -a 1 -x {0.0 2.0 18 ------- null}
r -t 1.52632 -s 1 -d 0 -p ack -e 40 -c 1 -i 28 -a 1 -x {2.0 0.0 9 ------- null}
+ -t 1.52632 -s 0 -d 1 -p tcp -e 1040 -c 1 -i 29 -a 1 -x {0.0 2.0 19 ------- null}
- -t 1.52632 -s 0 -d 1 -p tcp -e 1040 -c 1 -i 29 -a 1 -x {0.0 2.0 19 ------- null}
h -t 1.52632 -s 0 -d 1 -p tcp -e 1040 -c 1 -i 29 -a 1 -x {0.0 2.0 -1 ------- null}
+ -t 1.52632 -s 0 -d 1 -p tcp -e 1040 -c 1 -i 30 -a 1 -x {0.0 2.0 20 ------- null}
- -t 1.53464 -s 0 -d 1 -p tcp -e 1040 -c 1 -i 30 -a 1 -x {0.0 2.0 20 ------- null}
h -t 1.53464 -s 0 -d 1 -p tcp -e 1040 -c 1 -i 30 -a 1 -x {0.0 2.0 -1 ------- null}
- -t 1.546 -s 1 -d 2 -p tcp -e 1040 -c 1 -i 17 -a 1 -x {0.0 2.0 11 ------- null}
h -t 1.546 -s 1 -d 2 -p tcp -e 1040 -c 1 -i 17 -a 1 -x {0.0 2.0 -1 ------- null}
r -t 1.551 -s 1 -d 2 -p tcp -e 1040 -c 1 -i 15 -a 1 -x {0.0 2.0 10 ------- null}
+ -t 1.551 -s 2 -d 1 -p ack -e 40 -c 1 -i 31 -a 1 -x {2.0 0.0 10 ------- null}
- -t 1.551 -s 2 -d 1 -p ack -e 40 -c 1 -i 31 -a 1 -x {2.0 0.0 10 ------- null}
h -t 1.551 -s 2 -d 1 -p ack -e 40 -c 1 -i 31 -a 1 -x {2.0 0.0 -1 ------- null}
r -t 1.5592 -s 2 -d 1 -p ack -e 40 -c 1 -i 31 -a 1 -x {2.0 0.0 10 ------- null}
+ -t 1.5592 -s 1 -d 0 -p ack -e 40 -c 1 -i 31 -a 1 -x {2.0 0.0 10 ------- null}
- -t 1.5592 -s 1 -d 0 -p ack -e 40 -c 1 -i 31 -a 1 -x {2.0 0.0 10 ------- null}
h -t 1.5592 -s 1 -d 0 -p ack -e 40 -c 1 -i 31 -a 1 -x {2.0 0.0 -1 ------- null}
r -t 1.58464 -s 0 -d 1 -p tcp -e 1040 -c 1 -i 29 -a 1 -x {0.0 2.0 19 ------- null}
+ -t 1.58464 -s 1 -d 2 -p tcp -e 1040 -c 1 -i 29 -a 1 -x {0.0 2.0 19 ------- null}
r -t 1.59296 -s 0 -d 1 -p tcp -e 1040 -c 1 -i 30 -a 1 -x {0.0 2.0 20 ------- null}
+ -t 1.59296 -s 1 -d 2 -p tcp -e 1040 -c 1 -i 30 -a 1 -x {0.0 2.0 20 ------- null}
r -t 1.60952 -s 1 -d 0 -p ack -e 40 -c 1 -i 31 -a 1 -x {2.0 0.0 10 ------- null}
+ -t 1.60952 -s 0 -d 1 -p tcp -e 1040 -c 1 -i 32 -a 1 -x {0.0 2.0 21 ------- null}
- -t 1.60952 -s 0 -d 1 -p tcp -e 1040 -c 1 -i 32 -a 1 -x {0.0 2.0 21 ------- null}
h -t 1.60952 -s 0 -d 1 -p tcp -e 1040 -c 1 -i 32 -a 1 -x {0.0 2.0 -1 ------- null}
+ -t 1.60952 -s 0 -d 1 -p tcp -e 1040 -c 1 -i 33 -a 1 -x {0.0 2.0 22 ------- null}
- -t 1.61784 -s 0 -d 1 -p tcp -e 1040 -c 1 -i 33 -a 1 -x {0.0 2.0 22 ------- null}
h -t 1.61784 -s 0 -d 1 -p tcp -e 1040 -c 1 -i 33 -a 1 -x {0.0 2.0 -1 ------- null}
- -t 1.6292 -s 1 -d 2 -p tcp -e 1040 -c 1 -i 18 -a 1 -x {0.0 2.0 12 ------- null}
h -t 1.6292 -s 1 -d 2 -p tcp -e 1040 -c 1 -i 18 -a 1 -x {0.0 2.0 -1 ------- null}
r -t 1.6342 -s 1 -d 2 -p tcp -e 1040 -c 1 -i 17 -a 1 -x {0.0 2.0 11 ------- null}
+ -t 1.6342 -s 2 -d 1 -p ack -e 40 -c 1 -i 34 -a 1 -x {2.0 0.0 11 ------- null}
- -t 1.6342 -s 2 -d 1 -p ack -e 40 -c 1 -i 34 -a 1 -x {2.0 0.0 11 ------- null}
h -t 1.6342 -s 2 -d 1 -p ack -e 40 -c 1 -i 34 -a 1 -x {2.0 0.0 -1 ------- null}
r -t 1.6424 -s 2 -d 1 -p ack -e 40 -c 1 -i 34 -a 1 -x {2.0 0.0 11 ------- null}
+ -t 1.6424 -s 1 -d 0 -p ack -e 40 -c 1 -i 34 -a 1 -x {2.0 0.0 11 ------- null}
- -t 1.6424 -s 1 -d 0 -p ack -e 40 -c 1 -i 34 -a 1 -x {2.0 0.0 11 ------- null}
h -t 1.6424 -s 1 -d 0 -p ack -e 40 -c 1 -i 34 -a 1 -x {2.0 0.0 -1 ------- null}
r -t 1.66784 -s 0 -d 1 -p tcp -e 1040 -c 1 -i 32 -a 1 -x {0.0 2.0 21 ------- null}
+ -t 1.66784 -s 1 -d 2 -p tcp -e 1040 -c 1 -i 32 -a 1 -x {0.0 2.0 21 ------- null}
r -t 1.67616 -s 0 -d 1 -p tcp -e 1040 -c 1 -i 33 -a 1 -x {0.0 2.0 22 ------- null}
+ -t 1.67616 -s 1 -d 2 -p tcp -e 1040 -c 1 -i 33 -a 1 -x {0.0 2.0 22 ------- null}
d -t 1.67616 -s 1 -d 2 -p tcp -e 1040 -c 1 -i 33 -a 1 -x {0.0 2.0 22 ------- null}
r -t 1.69272 -s 1 -d 0 -p ack -e 40 -c 1 -i 34 -a 1 -x {2.0 0.0 11 ------- null}
+ -t 1.69272 -s 0 -d 1 -p tcp -e 1040 -c 1 -i 35 -a 1 -x {0.0 2.0 23 ------- null}
- -t 1.69272 -s 0 -d 1 -p tcp -e 1040 -c 1 -i 35 -a 1 -x {0.0 2.0 23 ------- null}
h -t 1.69272 -s 0 -d 1 -p tcp -e 1040 -c 1 -i 35 -a 1 -x {0.0 2.0 -1 ------- null}
+ -t 1.69272 -s 0 -d 1 -p tcp -e 1040 -c 1 -i 36 -a 1 -x {0.0 2.0 24 ------- null}
- -t 1.70104 -s 0 -d 1 -p tcp -e 1040 -c 1 -i 36 -a 1 -x {0.0 2.0 24 ------- null}
h -t 1.70104 -s 0 -d 1 -p tcp -e 1040 -c 1 -i 36 -a 1 -x {0.0 2.0 -1 ------- null}
- -t 1.7124 -s 1 -d 2 -p tcp -e 1040 -c 1 -i 20 -a 1 -x {0.0 2.0 13 ------- null}
h -t 1.7124 -s 1 -d 2 -p tcp -e 1040 -c 1 -i 20 -a 1 -x {0.0 2.0 -1 ------- null}
r -t 1.7174 -s 1 -d 2 -p tcp -e 1040 -c 1 -i 18 -a 1 -x {0.0 2.0 12 ------- null}
+ -t 1.7174 -s 2 -d 1 -p ack -e 40 -c 1 -i 37 -a 1 -x {2.0 0.0 12 ------- null}
- -t 1.7174 -s 2 -d 1 -p ack -e 40 -c 1 -i 37 -a 1 -x {2.0 0.0 12 ------- null}
h -t 1.7174 -s 2 -d 1 -p ack -e 40 -c 1 -i 37 -a 1 -x {2.0 0.0 -1 ------- null}
r -t 1.7256 -s 2 -d 1 -p ack -e 40 -c 1 -i 37 -a 1 -x {2.0 0.0 12 ------- null}
+ -t 1.7256 -s 1 -d 0 -p ack -e 40 -c 1 -i 37 -a 1 -x {2.0 0.0 12 ------- null}
- -t 1.7256 -s 1 -d 0 -p ack -e 40 -c 1 -i 37 -a 1 -x {2.0 0.0 12 ------- null}
h -t 1.7256 -s 1 -d 0 -p ack -e 40 -c 1 -i 37 -a 1 -x {2.0 0.0 -1 ------- null}
r -t 1.75104 -s 0 -d 1 -p tcp -e 1040 -c 1 -i 35 -a 1 -x {0.0 2.0 23 ------- null}
+ -t 1.75104 -s 1 -d 2 -p tcp -e 1040 -c 1 -i 35 -a 1 -x {0.0 2.0 23 ------- null}
r -t 1.75936 -s 0 -d 1 -p tcp -e 1040 -c 1 -i 36 -a 1 -x {0.0 2.0 24 ------- null}
+ -t 1.75936 -s 1 -d 2 -p tcp -e 1040 -c 1 -i 36 -a 1 -x {0.0 2.0 24 ------- null}
d -t 1.75936 -s 1 -d 2 -p tcp -e 1040 -c 1 -i 36 -a 1 -x {0.0 2.0 24 ------- null}
r -t 1.77592 -s 1 -d 0 -p ack -e 40 -c 1 -i 37 -a 1 -x {2.0 0.0 12 ------- null}
+ -t 1.77592 -s 0 -d 1 -p tcp -e 1040 -c 1 -i 38 -a 1 -x {0.0 2.0 25 ------- null}
- -t 1.77592 -s 0 -d 1 -p tcp -e 1040 -c 1 -i 38 -a 1 -x {0.0 2.0 25 ------- null}
h -t 1.77592 -s 0 -d 1 -p tcp -e 1040 -c 1 -i 38 -a 1 -x {0.0 2.0 -1 ------- null}
+ -t 1.77592 -s 0 -d 1 -p tcp -e 1040 -c 1 -i 39 -a 1 -x {0.0 2.0 26 ------- null}
- -t 1.78424 -s 0 -d 1 -p tcp -e 1040 -c 1 -i 39 -a 1 -x {0.0 2.0 26 ------- null}
h -t 1.78424 -s 0 -d 1 -p tcp -e 1040 -c 1 -i 39 -a 1 -x {0.0 2.0 -1 ------- null}
- -t 1.7956 -s 1 -d 2 -p tcp -e 1040 -c 1 -i 21 -a 1 -x {0.0 2.0 14 ------- null}
h -t 1.7956 -s 1 -d 2 -p tcp -e 1040 -c 1 -i 21 -a 1 -x {0.0 2.0 -1 ------- null}
r -t 1.8006 -s 1 -d 2 -p tcp -e 1040 -c 1 -i 20 -a 1 -x {0.0 2.0 13 ------- null}
+ -t 1.8006 -s 2 -d 1 -p ack -e 40 -c 1 -i 40 -a 1 -x {2.0 0.0 13 ------- null}
- -t 1.8006 -s 2 -d 1 -p ack -e 40 -c 1 -i 40 -a 1 -x {2.0 0.0 13 ------- null}
h -t 1.8006 -s 2 -d 1 -p ack -e 40 -c 1 -i 40 -a 1 -x {2.0 0.0 -1 ------- null}
r -t 1.8088 -s 2 -d 1 -p ack -e 40 -c 1 -i 40 -a 1 -x {2.0 0.0 13 ------- null}
+ -t 1.8088 -s 1 -d 0 -p ack -e 40 -c 1 -i 40 -a 1 -x {2.0 0.0 13 ------- null}
- -t 1.8088 -s 1 -d 0 -p ack -e 40 -c 1 -i 40 -a 1 -x {2.0 0.0 13 ------- null}
h -t 1.8088 -s 1 -d 0 -p ack -e 40 -c 1 -i 40 -a 1 -x {2.0 0.0 -1 ------- null}
r -t 1.83424 -s 0 -d 1 -p tcp -e 1040 -c 1 -i 38 -a 1 -x {0.0 2.0 25 ------- null}
+ -t 1.83424 -s 1 -d 2 -p tcp -e 1040 -c 1 -i 38 -a 1 -x {0.0 2.0 25 ------- null}
r -t 1.84256 -s 0 -d 1 -p tcp -e 1040 -c 1 -i 39 -a 1 -x {0.0 2.0 26 ------- null}
+ -t 1.84256 -s 1 -d 2 -p tcp -e 1040 -c 1 -i 39 -a 1 -x {0.0 2.0 26 ------- null}
d -t 1.84256 -s 1 -d 2 -p tcp -e 1040 -c 1 -i 39 -a 1 -x {0.0 2.0 26 ------- null}
r -t 1.85912 -s 1 -d 0 -p ack -e 40 -c 1 -i 40 -a 1 -x {2.0 0.0 13 ------- null}
+ -t 1.85912 -s 0 -d 1 -p tcp -e 1040 -c 1 -i 41 -a 1 -x {0.0 2.0 27 ------- null}
- -t 1.85912 -s 0 -d 1 -p tcp -e 1040 -c 1 -i 41 -a 1 -x {0.0 2.0 27 ------- null}
h -t 1.85912 -s 0 -d 1 -p tcp -e 1040 -c 1 -i 41 -a 1 -x {0.0 2.0 -1 ------- null}
+ -t 1.85912 -s 0 -d 1 -p tcp -e 1040 -c 1 -i 42 -a 1 -x {0.0 2.0 28 ------- null}
- -t 1.86744 -s 0 -d 1 -p tcp -e 1040 -c 1 -i 42 -a 1 -x {0.0 2.0 28 ------- null}
h -t 1.86744 -s 0 -d 1 -p tcp -e 1040 -c 1 -i 42 -a 1 -x {0.0 2.0 -1 ------- null}
- -t 1.8788 -s 1 -d 2 -p tcp -e 1040 -c 1 -i 23 -a 1 -x {0.0 2.0 15 ------- null}
h -t 1.8788 -s 1 -d 2 -p tcp -e 1040 -c 1 -i 23 -a 1 -x {0.0 2.0 -1 ------- null}
r -t 1.8838 -s 1 -d 2 -p tcp -e 1040 -c 1 -i 21 -a 1 -x {0.0 2.0 14 ------- null}
+ -t 1.8838 -s 2 -d 1 -p ack -e 40 -c 1 -i 43 -a 1 -x {2.0 0.0 14 ------- null}
- -t 1.8838 -s 2 -d 1 -p ack -e 40 -c 1 -i 43 -a 1 -x {2.0 0.0 14 ------- null}
h -t 1.8838 -s 2 -d 1 -p ack -e 40 -c 1 -i 43 -a 1 -x {2.0 0.0 -1 ------- null}
r -t 1.892 -s 2 -d 1 -p ack -e 40 -c 1 -i 43 -a 1 -x {2.0 0.0 14 ------- null}
+ -t 1.892 -s 1 -d 0 -p ack -e 40 -c 1 -i 43 -a 1 -x {2.0 0.0 14 ------- null}
- -t 1.892 -s 1 -d 0 -p ack -e 40 -c 1 -i 43 -a 1 -x {2.0 0.0 14 ------- null}
h -t 1.892 -s 1 -d 0 -p ack -e 40 -c 1 -i 43 -a 1 -x {2.0 0.0 -1 ------- null}
r -t 1.91744 -s 0 -d 1 -p tcp -e 1040 -c 1 -i 41 -a 1 -x {0.0 2.0 27 ------- null}
+ -t 1.91744 -s 1 -d 2 -p tcp -e 1040 -c 1 -i 41 -a 1 -x {0.0 2.0 27 ------- null}
r -t 1.92576 -s 0 -d 1 -p tcp -e 1040 -c 1 -i 42 -a 1 -x {0.0 2.0 28 ------- null}
+ -t 1.92576 -s 1 -d 2 -p tcp -e 1040 -c 1 -i 42 -a 1 -x {0.0 2.0 28 ------- null}
d -t 1.92576 -s 1 -d 2 -p tcp -e 1040 -c 1 -i 42 -a 1 -x {0.0 2.0 28 ------- null}
r -t 1.94232 -s 1 -d 0 -p ack -e 40 -c 1 -i 43 -a 1 -x {2.0 0.0 14 ------- null}
+ -t 1.94232 -s 0 -d 1 -p tcp -e 1040 -c 1 -i 44 -a 1 -x {0.0 2.0 29 ------- null}
- -t 1.94232 -s 0 -d 1 -p tcp -e 1040 -c 1 -i 44 -a 1 -x {0.0 2.0 29 ------- null}
h -t 1.94232 -s 0 -d 1 -p tcp -e 1040 -c 1 -i 44 -a 1 -x {0.0 2.0 -1 ------- null}
+ -t 1.94232 -s 0 -d 1 -p tcp -e 1040 -c 1 -i 45 -a 1 -x {0.0 2.0 30 ------- null}
- -t 1.95064 -s 0 -d 1 -p tcp -e 1040 -c 1 -i 45 -a 1 -x {0.0 2.0 30 ------- null}
h -t 1.95064 -s 0 -d 1 -p tcp -e 1040 -c 1 -i 45 -a 1 -x {0.0 2.0 -1 ------- null}
- -t 1.962 -s 1 -d 2 -p tcp -e 1040 -c 1 -i 24 -a 1 -x {0.0 2.0 16 ------- null}
h -t 1.962 -s 1 -d 2 -p tcp -e 1040 -c 1 -i 24 -a 1 -x {0.0 2.0 -1 ------- null}
r -t 1.967 -s 1 -d 2 -p tcp -e 1040 -c 1 -i 23 -a 1 -x {0.0 2.0 15 ------- null}
+ -t 1.967 -s 2 -d 1 -p ack -e 40 -c 1 -i 46 -a 1 -x {2.0 0.0 15 ------- null}
- -t 1.967 -s 2 -d 1 -p ack -e 40 -c 1 -i 46 -a 1 -x {2.0 0.0 15 ------- null}
h -t 1.967 -s 2 -d 1 -p ack -e 40 -c 1 -i 46 -a 1 -x {2.0 0.0 -1 ------- null}
r -t 1.9752 -s 2 -d 1 -p ack -e 40 -c 1 -i 46 -a 1 -x {2.0 0.0 15 ------- null}
+ -t 1.9752 -s 1 -d 0 -p ack -e 40 -c 1 -i 46 -a 1 -x {2.0 0.0 15 ------- null}
- -t 1.9752 -s 1 -d 0 -p ack -e 40 -c 1 -i 46 -a 1 -x {2.0 0.0 15 ------- null}
h -t 1.9752 -s 1 -d 0 -p ack -e 40 -c 1 -i 46 -a 1 -x {2.0 0.0 -1 ------- null}
r -t 2.00064 -s 0 -d 1 -p tcp -e 1040 -c 1 -i 44 -a 1 -x {0.0 2.0 29 ------- null}
+ -t 2.00064 -s 1 -d 2 -p tcp -e 1040 -c 1 -i 44 -a 1 -x {0.0 2.0 29 ------- null}
r -t 2.00896 -s 0 -d 1 -p tcp -e 1040 -c 1 -i 45 -a 1 -x {0.0 2.0 30 ------- null}
+ -t 2.00896 -s 1 -d 2 -p tcp -e 1040 -c 1 -i 45 -a 1 -x {0.0 2.0 30 ------- null}
d -t 2.00896 -s 1 -d 2 -p tcp -e 1040 -c 1 -i 45 -a 1 -x {0.0 2.0 30 ------- null}
r -t 2.02552 -s 1 -d 0 -p ack -e 40 -c 1 -i 46 -a 1 -x {2.0 0.0 15 ------- null}
+ -t 2.02552 -s 0 -d 1 -p tcp -e 1040 -c 1 -i 47 -a 1 -x {0.0 2.0 31 ------- null}
- -t 2.02552 -s 0 -d 1 -p tcp -e 1040 -c 1 -i 47 -a 1 -x {0.0 2.0 31 ------- null}
h -t 2.02552 -s 0 -d 1 -p tcp -e 1040 -c 1 -i 47 -a 1 -x {0.0 2.0 -1 ------- null}
+ -t 2.02552 -s 0 -d 1 -p tcp -e 1040 -c 1 -i 48 -a 1 -x {0.0 2.0 32 ------- null}
- -t 2.03384 -s 0 -d 1 -p tcp -e 1040 -c 1 -i 48 -a 1 -x {0.0 2.0 32 ------- null}
h -t 2.03384 -s 0 -d 1 -p tcp -e 1040 -c 1 -i 48 -a 1 -x {0.0 2.0 -1 ------- null}
- -t 2.0452 -s 1 -d 2 -p tcp -e 1040 -c 1 -i 26 -a 1 -x {0.0 2.0 17 ------- null}
h -t 2.0452 -s 1 -d 2 -p tcp -e 1040 -c 1 -i 26 -a 1 -x {0.0 2.0 -1 ------- null}
r -t 2.0502 -s 1 -d 2 -p tcp -e 1040 -c 1 -i 24 -a 1 -x {0.0 2.0 16 ------- null}
+ -t 2.0502 -s 2 -d 1 -p ack -e 40 -c 1 -i 49 -a 1 -x {2.0 0.0 16 ------- null}
- -t 2.0502 -s 2 -d 1 -p ack -e 40 -c 1 -i 49 -a 1 -x {2.0 0.0 16 ------- null}
h -t 2.0502 -s 2 -d 1 -p ack -e 40 -c 1 -i 49 -a 1 -x {2.0 0.0 -1 ------- null}
r -t 2.0584 -s 2 -d 1 -p ack -e 40 -c 1 -i 49 -a 1 -x {2.0 0.0 16 ------- null}
+ -t 2.0584 -s 1 -d 0 -p ack -e 40 -c 1 -i 49 -a 1 -x {2.0 0.0 16 ------- null}
- -t 2.0584 -s 1 -d 0 -p ack -e 40 -c 1 -i 49 -a 1 -x {2.0 0.0 16 ------- null}
h -t 2.0584 -s 1 -d 0 -p ack -e 40 -c 1 -i 49 -a 1 -x {2.0 0.0 -1 ------- null}
r -t 2.08384 -s 0 -d 1 -p tcp -e 1040 -c 1 -i 47 -a 1 -x {0.0 2.0 31 ------- null}
+ -t 2.08384 -s 1 -d 2 -p tcp -e 1040 -c 1 -i 47 -a 1 -x {0.0 2.0 31 ------- null}
r -t 2.09216 -s 0 -d 1 -p tcp -e 1040 -c 1 -i 48 -a 1 -x {0.0 2.0 32 ------- null}
+ -t 2.09216 -s 1 -d 2 -p tcp -e 1040 -c 1 -i 48 -a 1 -x {0.0 2.0 32 ------- null}
d -t 2.09216 -s 1 -d 2 -p tcp -e 1040 -c 1 -i 48 -a 1 -x {0.0 2.0 32 ------- null}
r -t 2.10872 -s 1 -d 0 -p ack -e 40 -c 1 -i 49 -a 1 -x {2.0 0.0 16 ------- null}
+ -t 2.10872 -s 0 -d 1 -p tcp -e 1040 -c 1 -i 50 -a 1 -x {0.0 2.0 33 ------- null}
- -t 2.10872 -s 0 -d 1 -p tcp -e 1040 -c 1 -i 50 -a 1 -x {0.0 2.0 33 ------- null}
h -t 2.10872 -s 0 -d 1 -p tcp -e 1040 -c 1 -i 50 -a 1 -x {0.0 2.0 -1 ------- null}
+ -t 2.10872 -s 0 -d 1 -p tcp -e 1040 -c 1 -i 51 -a 1 -x {0.0 2.0 34 ------- null}