+ 0.5 0 1 tcp 40 ------- 1 0.0 2.0 0 0
- 0.5 0 1 tcp 40 ------- 1 0.0 2.0 0 0
r 0.55032 0 1 tcp 40 ------- 1 0.0 2.0 0 0
+ 0.55032 1 2 tcp 40 ------- 1 0.0 2.0 0 0
- 0.55032 1 2 tcp 40 ------- 1 0.0 2.0 0 0
r 0.55852 1 2 tcp 40 ------- 1 0.0 2.0 0 0
+ 0.55852 2 1 ack 40 ------- 1 2.0 0.0 0 1
- 0.55852 2 1 ack 40 ------- 1 2.0 0.0 0 1
r 0.56672 2 1 ack 40 ------- 1 2.0 0.0 0 1
+ 0.56672 1 0 ack 40 ------- 1 2.0 0.0 0 1
- 0.56672 1 0 ack 40 ------- 1 2.0 0.0 0 1
r 0.61704 1 0 ack 40 ------- 1 2.0 0.0 0 1
+ 0.61704 0 1 tcp 1040 ------- 1 0.0 2.0 1 2
- 0.61704 0 1 tcp 1040 ------- 1 0.0 2.0 1 2
+ 0.61704 0 1 tcp 1040 ------- 1 0.0 2.0 2 3
- 0.62536 0 1 tcp 1040 ------- 1 0.0 2.0 2 3
r 0.67536 0 1 tcp 1040 ------- 1 0.0 2.0 1 2
+ 0.67536 1 2 tcp 1040 ------- 1 0.0 2.0 1 2
- 0.67536 1 2 tcp 1040 ------- 1 0.0 2.0 1 2
r 0.68368 0 1 tcp 1040 ------- 1 0.0 2.0 2 3
+ 0.68368 1 2 tcp 1040 ------- 1 0.0 2.0 2 3
- 0.75856 1 2 tcp 1040 ------- 1 0.0 2.0 2 3
r 0.76356 1 2 tcp 1040 ------- 1 0.0 2.0 1 2
+ 0.76356 2 1 ack 40 ------- 1 2.0 0.0 1 4
- 0.76356 2 1 ack 40 ------- 1 2.0 0.0 1 4
r 0.77176 2 1 ack 40 ------- 1 2.0 0.0 1 4
+ 0.77176 1 0 ack 40 ------- 1 2.0 0.0 1 4
- 0.77176 1 0 ack 40 ------- 1 2.0 0.0 1 4
r 0.82208 1 0 ack 40 ------- 1 2.0 0.0 1 4
+ 0.82208 0 1 tcp 1040 ------- 1 0.0 2.0 3 5
- 0.82208 0 1 tcp 1040 ------- 1 0.0 2.0 3 5
+ 0.82208 0 1 tcp 1040 ------- 1 0.0 2.0 4 6
- 0.8304 0 1 tcp 1040 ------- 1 0.0 2.0 4 6
r 0.84676 1 2 tcp 1040 ------- 1 0.0 2.0 2 3
+ 0.84676 2 1 ack 40 ------- 1 2.0 0.0 2 7
- 0.84676 2 1 ack 40 ------- 1 2.0 0.0 2 7
r 0.85496 2 1 ack 40 ------- 1 2.0 0.0 2 7
+ 0.85496 1 0 ack 40 ------- 1 2.0 0.0 2 7
- 0.85496 1 0 ack 40 ------- 1 2.0 0.0 2 7
r 0.8804 0 1 tcp 1040 ------- 1 0.0 2.0 3 5
+ 0.8804 1 2 tcp 1040 ------- 1 0.0 2.0 3 5
- 0.8804 1 2 tcp 1040 ------- 1 0.0 2.0 3 5
r 0.88872 0 1 tcp 1040 ------- 1 0.0 2.0 4 6
+ 0.88872 1 2 tcp 1040 ------- 1 0.0 2.0 4 6
r 0.90528 1 0 ack 40 ------- 1 2.0 0.0 2 7
+ 0.90528 0 1 tcp 1040 ------- 1 0.0 2.0 5 8
- 0.90528 0 1 tcp 1040 ------- 1 0.0 2.0 5 8
+ 0.90528 0 1 tcp 1040 ------- 1 0.0 2.0 6 9
- 0.9136 0 1 tcp 1040 ------- 1 0.0 2.0 6 9
- 0.9636 1 2 tcp 1040 ------- 1 0.0 2.0 4 6
r 0.9636 0 1 tcp 1040 ------- 1 0.0 2.0 5 8
+ 0.9636 1 2 tcp 1040 ------- 1 0.0 2.0 5 8
r 0.9686 1 2 tcp 1040 ------- 1 0.0 2.0 3 5
+ 0.9686 2 1 ack 40 ------- 1 2.0 0.0 3 10
- 0.9686 2 1 ack 40 ------- 1 2.0 0.0 3 10
r 0.97192 0 1 tcp 1040 ------- 1 0.0 2.0 6 9
+ 0.97192 1 2 tcp 1040 ------- 1 0.0 2.0 6 9
r 0.9768 2 1 ack 40 ------- 1 2.0 0.0 3 10
+ 0.9768 1 0 ack 40 ------- 1 2.0 0.0 3 10
- 0.9768 1 0 ack 40 ------- 1 2.0 0.0 3 10
r 1.02712 1 0 ack 40 ------- 1 2.0 0.0 3 10
+ 1.02712 0 1 tcp 1040 ------- 1 0.0 2.0 7 11
- 1.02712 0 1 tcp 1040 ------- 1 0.0 2.0 7 11
+ 1.02712 0 1 tcp 1040 ------- 1 0.0 2.0 8 12
- 1.03544 0 1 tcp 1040 ------- 1 0.0 2.0 8 12
- 1.0468 1 2 tcp 1040 ------- 1 0.0 2.0 5 8
r 1.0518 1 2 tcp 1040 ------- 1 0.0 2.0 4 6
+ 1.0518 2 1 ack 40 ------- 1 2.0 0.0 4 13
- 1.0518 2 1 ack 40 ------- 1 2.0 0.0 4 13
r 1.06 2 1 ack 40 ------- 1 2.0 0.0 4 13
+ 1.06 1 0 ack 40 ------- 1 2.0 0.0 4 13
- 1.06 1 0 ack 40 ------- 1 2.0 0.0 4 13
r 1.08544 0 1 tcp 1040 ------- 1 0.0 2.0 7 11
+ 1.08544 1 2 tcp 1040 ------- 1 0.0 2.0 7 11
r 1.09376 0 1 tcp 1040 ------- 1 0.0 2.0 8 12
+ 1.09376 1 2 tcp 1040 ------- 1 0.0 2.0 8 12
r 1.11032 1 0 ack 40 ------- 1 2.0 0.0 4 13
+ 1.11032 0 1 tcp 1040 ------- 1 0.0 2.0 9 14
- 1.11032 0 1 tcp 1040 ------- 1 0.0 2.0 9 14
+ 1.11032 0 1 tcp 1040 ------- 1 0.0 2.0 10 15
- 1.11864 0 1 tcp 1040 ------- 1 0.0 2.0 10 15
- 1.13 1 2 tcp 1040 ------- 1 0.0 2.0 6 9
r 1.135 1 2 tcp 1040 ------- 1 0.0 2.0 5 8
+ 1.135 2 1 ack 40 ------- 1 2.0 0.0 5 16
- 1.135 2 1 ack 40 ------- 1 2.0 0.0 5 16
r 1.1432 2 1 ack 40 ------- 1 2.0 0.0 5 16
+ 1.1432 1 0 ack 40 ------- 1 2.0 0.0 5 16
- 1.1432 1 0 ack 40 ------- 1 2.0 0.0 5 16
r 1.16864 0 1 tcp 1040 ------- 1 0.0 2.0 9 14
+ 1.16864 1 2 tcp 1040 ------- 1 0.0 2.0 9 14
r 1.17696 0 1 tcp 1040 ------- 1 0.0 2.0 10 15
+ 1.17696 1 2 tcp 1040 ------- 1 0.0 2.0 10 15
r 1.19352 1 0 ack 40 ------- 1 2.0 0.0 5 16
+ 1.19352 0 1 tcp 1040 ------- 1 0.0 2.0 11 17
- 1.19352 0 1 tcp 1040 ------- 1 0.0 2.0 11 17
+ 1.19352 0 1 tcp 1040 ------- 1 0.0 2.0 12 18
- 1.20184 0 1 tcp 1040 ------- 1 0.0 2.0 12 18
- 1.2132 1 2 tcp 1040 ------- 1 0.0 2.0 7 11
r 1.2182 1 2 tcp 1040 ------- 1 0.0 2.0 6 9
+ 1.2182 2 1 ack 40 ------- 1 2.0 0.0 6 19
- 1.2182 2 1 ack 40 ------- 1 2.0 0.0 6 19
r 1.2264 2 1 ack 40 ------- 1 2.0 0.0 6 19
+ 1.2264 1 0 ack 40 ------- 1 2.0 0.0 6 19
- 1.2264 1 0 ack 40 ------- 1 2.0 0.0 6 19
r 1.25184 0 1 tcp 1040 ------- 1 0.0 2.0 11 17
+ 1.25184 1 2 tcp 1040 ------- 1 0.0 2.0 11 17
r 1.26016 0 1 tcp 1040 ------- 1 0.0 2.0 12 18
+ 1.26016 1 2 tcp 1040 ------- 1 0.0 2.0 12 18
r 1.27672 1 0 ack 40 ------- 1 2.0 0.0 6 19
+ 1.27672 0 1 tcp 1040 ------- 1 0.0 2.0 13 20
- 1.27672 0 1 tcp 1040 ------- 1 0.0 2.0 13 20
+ 1.27672 0 1 tcp 1040 ------- 1 0.0 2.0 14 21
- 1.28504 0 1 tcp 1040 ------- 1 0.0 2.0 14 21
- 1.2964 1 2 tcp 1040 ------- 1 0.0 2.0 8 12
r 1.3014 1 2 tcp 1040 ------- 1 0.0 2.0 7 11
+ 1.3014 2 1 ack 40 ------- 1 2.0 0.0 7 22
- 1.3014 2 1 ack 40 ------- 1 2.0 0.0 7 22
r 1.3096 2 1 ack 40 ------- 1 2.0 0.0 7 22
+ 1.3096 1 0 ack 40 ------- 1 2.0 0.0 7 22
- 1.3096 1 0 ack 40 ------- 1 2.0 0.0 7 22
r 1.33504 0 1 tcp 1040 ------- 1 0.0 2.0 13 20
+ 1.33504 1 2 tcp 1040 ------- 1 0.0 2.0 13 20
r 1.34336 0 1 tcp 1040 ------- 1 0.0 2.0 14 21
+ 1.34336 1 2 tcp 1040 ------- 1 0.0 2.0 14 21
r 1.35992 1 0 ack 40 ------- 1 2.0 0.0 7 22
+ 1.35992 0 1 tcp 1040 ------- 1 0.0 2.0 15 23
- 1.35992 0 1 tcp 1040 ------- 1 0.0 2.0 15 23
+ 1.35992 0 1 tcp 1040 ------- 1 0.0 2.0 16 24
- 1.36824 0 1 tcp 1040 ------- 1 0.0 2.0 16 24
- 1.3796 1 2 tcp 1040 ------- 1 0.0 2.0 9 14
r 1.3846 1 2 tcp 1040 ------- 1 0.0 2.0 8 12
+ 1.3846 2 1 ack 40 ------- 1 2.0 0.0 8 25
- 1.3846 2 1 ack 40 ------- 1 2.0 0.0 8 25
r 1.3928 2 1 ack 40 ------- 1 2.0 0.0 8 25
+ 1.3928 1 0 ack 40 ------- 1 2.0 0.0 8 25
- 1.3928 1 0 ack 40 ------- 1 2.0 0.0 8 25
r 1.41824 0 1 tcp 1040 ------- 1 0.0 2.0 15 23
+ 1.41824 1 2 tcp 1040 ------- 1 0.0 2.0 15 23
r 1.42656 0 1 tcp 1040 ------- 1 0.0 2.0 16 24
+ 1.42656 1 2 tcp 1040 ------- 1 0.0 2.0 16 24
r 1.44312 1 0 ack 40 ------- 1 2.0 0.0 8 25
+ 1.44312 0 1 tcp 1040 ------- 1 0.0 2.0 17 26
- 1.44312 0 1 tcp 1040 ------- 1 0.0 2.0 17 26
+ 1.44312 0 1 tcp 1040 ------- 1 0.0 2.0 18 27
- 1.45144 0 1 tcp 1040 ------- 1 0.0 2.0 18 27
- 1.4628 1 2 tcp 1040 ------- 1 0.0 2.0 10 15
r 1.4678 1 2 tcp 1040 ------- 1 0.0 2.0 9 14
+ 1.4678 2 1 ack 40 ------- 1 2.0 0.0 9 28
- 1.4678 2 1 ack 40 ------- 1 2.0 0.0 9 28
r 1.476 2 1 ack 40 ------- 1 2.0 0.0 9 28
+ 1.476 1 0 ack 40 ------- 1 2.0 0.0 9 28
- 1.476 1 0 ack 40 ------- 1 2.0 0.0 9 28
r 1.50144 0 1 tcp 1040 ------- 1 0.0 2.0 17 26
+ 1.50144 1 2 tcp 1040 ------- 1 0.0 2.0 17 26
r 1.50976 0 1 tcp 1040 ------- 1 0.0 2.0 18 27
+ 1.50976 1 2 tcp 1040 ------- 1 0.0 2.0 18 27
r 1.52632 1 0 ack 40 ------- 1 2.0 0.0 9 28
+ 1.52632 0 1 tcp 1040 ------- 1 0.0 2.0 19 29
- 1.52632 0 1 tcp 1040 ------- 1 0.0 2.0 19 29
+ 1.52632 0 1 tcp 1040 ------- 1 0.0 2.0 20 30
- 1.53464 0 1 tcp 1040 ------- 1 0.0 2.0 20 30
- 1.546 1 2 tcp 1040 ------- 1 0.0 2.0 11 17
r 1.551 1 2 tcp 1040 ------- 1 0.0 2.0 10 15
+ 1.551 2 1 ack 40 ------- 1 2.0 0.0 10 31
- 1.551 2 1 ack 40 ------- 1 2.0 0.0 10 31
r 1.5592 2 1 ack 40 ------- 1 2.0 0.0 10 31
+ 1.5592 1 0 ack 40 ------- 1 2.0 0.0 10 31
- 1.5592 1 0 ack 40 ------- 1 2.0 0.0 10 31
r 1.58464 0 1 tcp 1040 ------- 1 0.0 2.0 19 29
+ 1.58464 1 2 tcp 1040 ------- 1 0.0 2.0 19 29
r 1.59296 0 1 tcp 1040 ------- 1 0.0 2.0 20 30
+ 1.59296 1 2 tcp 1040 ------- 1 0.0 2.0 20 30
r 1.60952 1 0 ack 40 ------- 1 2.0 0.0 10 31
+ 1.60952 0 1 tcp 1040 ------- 1 0.0 2.0 21 32
- 1.60952 0 1 tcp 1040 ------- 1 0.0 2.0 21 32
+ 1.60952 0 1 tcp 1040 ------- 1 0.0 2.0 22 33
- 1.61784 0 1 tcp 1040 ------- 1 0.0 2.0 22 33
- 1.6292 1 2 tcp 1040 ------- 1 0.0 2.0 12 18
r 1.6342 1 2 tcp 1040 ------- 1 0.0 2.0 11 17
+ 1.6342 2 1 ack 40 ------- 1 2.0 0.0 11 34
- 1.6342 2 1 ack 40 ------- 1 2.0 0.0 11 34
r 1.6424 2 1 ack 40 ------- 1 2.0 0.0 11 34
+ 1.6424 1 0 ack 40 ------- 1 2.0 0.0 11 34
- 1.6424 1 0 ack 40 ------- 1 2.0 0.0 11 34
r 1.66784 0 1 tcp 1040 ------- 1 0.0 2.0 21 32
+ 1.66784 1 2 tcp 1040 ------- 1 0.0 2.0 21 32
r 1.67616 0 1 tcp 1040 ------- 1 0.0 2.0 22 33
+ 1.67616 1 2 tcp 1040 ------- 1 0.0 2.0 22 33
d 1.67616 1 2 tcp 1040 ------- 1 0.0 2.0 22 33
r 1.69272 1 0 ack 40 ------- 1 2.0 0.0 11 34
+ 1.69272 0 1 tcp 1040 ------- 1 0.0 2.0 23 35
- 1.69272 0 1 tcp 1040 ------- 1 0.0 2.0 23 35
+ 1.69272 0 1 tcp 1040 ------- 1 0.0 2.0 24 36
- 1.70104 0 1 tcp 1040 ------- 1 0.0 2.0 24 36
- 1.7124 1 2 tcp 1040 ------- 1 0.0 2.0 13 20
r 1.7174 1 2 tcp 1040 ------- 1 0.0 2.0 12 18
+ 1.7174 2 1 ack 40 ------- 1 2.0 0.0 12 37
- 1.7174 2 1 ack 40 ------- 1 2.0 0.0 12 37
r 1.7256 2 1 ack 40 ------- 1 2.0 0.0 12 37
+ 1.7256 1 0 ack 40 ------- 1 2.0 0.0 12 37
- 1.7256 1 0 ack 40 ------- 1 2.0 0.0 12 37
r 1.75104 0 1 tcp 1040 ------- 1 0.0 2.0 23 35
+ 1.75104 1 2 tcp 1040 ------- 1 0.0 2.0 23 35
r 1.75936 0 1 tcp 1040 ------- 1 0.0 2.0 24 36
+ 1.75936 1 2 tcp 1040 ------- 1 0.0 2.0 24 36
d 1.75936 1 2 tcp 1040 ------- 1 0.0 2.0 24 36
r 1.77592 1 0 ack 40 ------- 1 2.0 0.0 12 37
+ 1.77592 0 1 tcp 1040 ------- 1 0.0 2.0 25 38
- 1.77592 0 1 tcp 1040 ------- 1 0.0 2.0 25 38
+ 1.77592 0 1 tcp 1040 ------- 1 0.0 2.0 26 39
- 1.78424 0 1 tcp 1040 ------- 1 0.0 2.0 26 39
- 1.7956 1 2 tcp 1040 ------- 1 0.0 2.0 14 21
r 1.8006 1 2 tcp 1040 ------- 1 0.0 2.0 13 20
+ 1.8006 2 1 ack 40 ------- 1 2.0 0.0 13 40
- 1.8006 2 1 ack 40 ------- 1 2.0 0.0 13 40
r 1.8088 2 1 ack 40 ------- 1 2.0 0.0 13 40
+ 1.8088 1 0 ack 40 ------- 1 2.0 0.0 13 40
- 1.8088 1 0 ack 40 ------- 1 2.0 0.0 13 40
r 1.83424 0 1 tcp 1040 ------- 1 0.0 2.0 25 38
+ 1.83424 1 2 tcp 1040 ------- 1 0.0 2.0 25 38
r 1.84256 0 1 tcp 1040 ------- 1 0.0 2.0 26 39
+ 1.84256 1 2 tcp 1040 ------- 1 0.0 2.0 26 39
d 1.84256 1 2 tcp 1040 ------- 1 0.0 2.0 26 39
r 1.85912 1 0 ack 40 ------- 1 2.0 0.0 13 40
+ 1.85912 0 1 tcp 1040 ------- 1 0.0 2.0 27 41
- 1.85912 0 1 tcp 1040 ------- 1 0.0 2.0 27 41
+ 1.85912 0 1 tcp 1040 ------- 1 0.0 2.0 28 42
- 1.86744 0 1 tcp 1040 ------- 1 0.0 2.0 28 42
- 1.8788 1 2 tcp 1040 ------- 1 0.0 2.0 15 23
r 1.8838 1 2 tcp 1040 ------- 1 0.0 2.0 14 21
+ 1.8838 2 1 ack 40 ------- 1 2.0 0.0 14 43
- 1.8838 2 1 ack 40 ------- 1 2.0 0.0 14 43
r 1.892 2 1 ack 40 ------- 1 2.0 0.0 14 43
+ 1.892 1 0 ack 40 ------- 1 2.0 0.0 14 43
- 1.892 1 0 ack 40 ------- 1 2.0 0.0 14 43
r 1.91744 0 1 tcp 1040 ------- 1 0.0 2.0 27 41
+ 1.91744 1 2 tcp 1040 ------- 1 0.0 2.0 27 41
r 1.92576 0 1 tcp 1040 ------- 1 0.0 2.0 28 42
+ 1.92576 1 2 tcp 1040 ------- 1 0.0 2.0 28 42
d 1.92576 1 2 tcp 1040 ------- 1 0.0 2.0 28 42
r 1.94232 1 0 ack 40 ------- 1 2.0 0.0 14 43
+ 1.94232 0 1 tcp 1040 ------- 1 0.0 2.0 29 44
- 1.94232 0 1 tcp 1040 ------- 1 0.0 2.0 29 44
+ 1.94232 0 1 tcp 1040 ------- 1 0.0 2.0 30 45
- 1.95064 0 1 tcp 1040 ------- 1 0.0 2.0 30 45
- 1.962 1 2 tcp 1040 ------- 1 0.0 2.0 16 24
r 1.967 1 2 tcp 1040 ------- 1 0.0 2.0 15 23
+ 1.967 2 1 ack 40 ------- 1 2.0 0.0 15 46
- 1.967 2 1 ack 40 ------- 1 2.0 0.0 15 46
r 1.9752 2 1 ack 40 ------- 1 2.0 0.0 15 46
+ 1.9752 1 0 ack 40 ------- 1 2.0 0.0 15 46
- 1.9752 1 0 ack 40 ------- 1 2.0 0.0 15 46
r 2.00064 0 1 tcp 1040 ------- 1 0.0 2.0 29 44
+ 2.00064 1 2 tcp 1040 ------- 1 0.0 2.0 29 44
r 2.00896 0 1 tcp 1040 ------- 1 0.0 2.0 30 45
+ 2.00896 1 2 tcp 1040 ------- 1 0.0 2.0 30 45
d 2.00896 1 2 tcp 1040 ------- 1 0.0 2.0 30 45
r 2.02552 1 0 ack 40 ------- 1 2.0 0.0 15 46
+ 2.02552 0 1 tcp 1040 ------- 1 0.0 2.0 31 47
- 2.02552 0 1 tcp 1040 ------- 1 0.0 2.0 31 47
+ 2.02552 0 1 tcp 1040 ------- 1 0.0 2.0 32 48
- 2.03384 0 1 tcp 1040 ------- 1 0.0 2.0 32 48
- 2.0452 1 2 tcp 1040 ------- 1 0.0 2.0 17 26
r 2.0502 1 2 tcp 1040 ------- 1 0.0 2.0 16 24
+ 2.0502 2 1 ack 40 ------- 1 2.0 0.0 16 49
- 2.0502 2 1 ack 40 ------- 1 2.0 0.0 16 49
r 2.0584 2 1 ack 40 ------- 1 2.0 0.0 16 49
+ 2.0584 1 0 ack 40 ------- 1 2.0 0.0 16 49
- 2.0584 1 0 ack 40 ------- 1 2.0 0.0 16 49
r 2.08384 0 1 tcp 1040 ------- 1 0.0 2.0 31 47
+ 2.08384 1 2 tcp 1040 ------- 1 0.0 2.0 31 47
r 2.09216 0 1 tcp 1040 ------- 1 0.0 2.0 32 48
+ 2.09216 1 2 tcp 1040 ------- 1 0.0 2.0 32 48
d 2.09216 1 2 tcp 1040 ------- 1 0.0 2.0 32 48
r 2.10872 1 0 ack 40 ------- 1 2.0 0.0 16 49
+ 2.10872 0 1 tcp 1040 ------- 1 0.0 2.0 33 50
- 2.10872 0 1 tcp 1040 ------- 1 0.0 2.0 33 50
+ 2.10872 0 1 tcp 1040 ------- 1 0.0 2.0 34 51
- 2.11704 0 1 tcp 1040 ------- 1 0.0 2.0 34 51
- 2.1284 1 2 tcp 1040 ------- 1 0.0 2.0 18 27
r 2.1334 1 2 tcp 1040 ------- 1 0.0 2.0 17 26
+ 2.1334 2 1 ack 40 ------- 1 2.0 0.0 17 52
- 2.1334 2 1 ack 40 ------- 1 2.0 0.0 17 52
r 2.1416 2 1 ack 40 ------- 1 2.0 0.0 17 52
+ 2.1416 1 0 ack 40 ------- 1 2.0 0.0 17 52
- 2.1416 1 0 ack 40 ------- 1 2.0 0.0 17 52
r 2.16704 0 1 tcp 1040 ------- 1 0.0 2.0 33 50
+ 2.16704 1 2 tcp 1040 ------- 1 0.0 2.0 33 50
r 2.17536 0 1 tcp 1040 ------- 1 0.0 2.0 34 51
+ 2.17536 1 2 tcp 1040 ------- 1 0.0 2.0 34 51
d 2.17536 1 2 tcp 1040 ------- 1 0.0 2.0 34 51
r 2.19192 1 0 ack 40 ------- 1 2.0 0.0 17 52
+ 2.19192 0 1 tcp 1040 ------- 1 0.0 2.0 35 53
- 2.19192 0 1 tcp 1040 ------- 1 0.0 2.0 35 53
+ 2.19192 0 1 tcp 1040 ------- 1 0.0 2.0 36 54
- 2.20024 0 1 tcp 1040 ------- 1 0.0 2.0 36 54
- 2.2116 1 2 tcp 1040 ------- 1 0.0 2.0 19 29
r 2.2166 1 2 tcp 1040 ------- 1 0.0 2.0 18 27
+ 2.2166 2 1 ack 40 ------- 1 2.0 0.0 18 55
- 2.2166 2 1 ack 40 ------- 1 2.0 0.0 18 55
r 2.2248 2 1 ack 40 ------- 1 2.0 0.0 18 55
+ 2.2248 1 0 ack 40 ------- 1 2.0 0.0 18 55
- 2.2248 1 0 ack 40 ------- 1 2.0 0.0 18 55
r 2.25024 0 1 tcp 1040 ------- 1 0.0 2.0 35 53
+ 2.25024 1 2 tcp 1040 ------- 1 0.0 2.0 35 53
r 2.25856 0 1 tcp 1040 ------- 1 0.0 2.0 36 54
+ 2.25856 1 2 tcp 1040 ------- 1 0.0 2.0 36 54
d 2.25856 1 2 tcp 1040 ------- 1 0.0 2.0 36 54
r 2.27512 1 0 ack 40 ------- 1 2.0 0.0 18 55
+ 2.27512 0 1 tcp 1040 ------- 1 0.0 2.0 37 56
- 2.27512 0 1 tcp 1040 ------- 1 0.0 2.0 37 56
+ 2.27512 0 1 tcp 1040 ------- 1 0.0 2.0 38 57
- 2.28344 0 1 tcp 1040 ------- 1 0.0 2.0 38 57
- 2.2948 1 2 tcp 1040 ------- 1 0.0 2.0 20 30
r 2.2998 1 2 tcp 1040 ------- 1 0.0 2.0 19 29
+ 2.2998 2 1 ack 40 ------- 1 2.0 0.0 19 58
- 2.2998 2 1 ack 40 ------- 1 2.0 0.0 19 58
r 2.308 2 1 ack 40 ------- 1 2.0 0.0 19 58
+ 2.308 1 0 ack 40 ------- 1 2.0 0.0 19 58
- 2.308 1 0 ack 40 ------- 1 2.0 0.0 19 58
r 2.33344 0 1 tcp 1040 ------- 1 0.0 2.0 37 56
+ 2.33344 1 2 tcp 1040 ------- 1 0.0 2.0 37 56
r 2.34176 0 1 tcp 1040 ------- 1 0.0 2.0 38 57
+ 2.34176 1 2 tcp 1040 ------- 1 0.0 2.0 38 57
d 2.34176 1 2 tcp 1040 ------- 1 0.0 2.0 38 57
r 2.35832 1 0 ack 40 ------- 1 2.0 0.0 19 58
+ 2.35832 0 1 tcp 1040 ------- 1 0.0 2.0 39 59
- 2.35832 0 1 tcp 1040 ------- 1 0.0 2.0 39 59
- 2.378 1 2 tcp 1040 ------- 1 0.0 2.0 21 32
r 2.383 1 2 tcp 1040 ------- 1 0.0 2.0 20 30
+ 2.383 2 1 ack 40 ------- 1 2.0 0.0 20 60
- 2.383 2 1 ack 40 ------- 1 2.0 0.0 20 60
r 2.3912 2 1 ack 40 ------- 1 2.0 0.0 20 60
+ 2.3912 1 0 ack 40 ------- 1 2.0 0.0 20 60
- 2.3912 1 0 ack 40 ------- 1 2.0 0.0 20 60
r 2.41664 0 1 tcp 1040 ------- 1 0.0 2.0 39 59
+ 2.41664 1 2 tcp 1040 ------- 1 0.0 2.0 39 59
r 2.44152 1 0 ack 40 ------- 1 2.0 0.0 20 60
+ 2.44152 0 1 tcp 1040 ------- 1 0.0 2.0 40 61
- 2.44152 0 1 tcp 1040 ------- 1 0.0 2.0 40 61
- 2.4612 1 2 tcp 1040 ------- 1 0.0 2.0 23 35
r 2.4662 1 2 tcp 1040 ------- 1 0.0 2.0 21 32
+ 2.4662 2 1 ack 40 ------- 1 2.0 0.0 21 62
- 2.4662 2 1 ack 40 ------- 1 2.0 0.0 21 62
r 2.4744 2 1 ack 40 ------- 1 2.0 0.0 21 62
+ 2.4744 1 0 ack 40 ------- 1 2.0 0.0 21 62
- 2.4744 1 0 ack 40 ------- 1 2.0 0.0 21 62
r 2.49984 0 1 tcp 1040 ------- 1 0.0 2.0 40 61
+ 2.49984 1 2 tcp 1040 ------- 1 0.0 2.0 40 61
r 2.52472 1 0 ack 40 ------- 1 2.0 0.0 21 62
+ 2.52472 0 1 tcp 1040 ------- 1 0.0 2.0 41 63
- 2.52472 0 1 tcp 1040 ------- 1 0.0 2.0 41 63
- 2.5444 1 2 tcp 1040 ------- 1 0.0 2.0 25 38
r 2.5494 1 2 tcp 1040 ------- 1 0.0 2.0 23 35
+ 2.5494 2 1 ack 40 ------- 1 2.0 0.0 21 64
- 2.5494 2 1 ack 40 ------- 1 2.0 0.0 21 64
r 2.5576 2 1 ack 40 ------- 1 2.0 0.0 21 64
+ 2.5576 1 0 ack 40 ------- 1 2.0 0.0 21 64
- 2.5576 1 0 ack 40 ------- 1 2.0 0.0 21 64
r 2.58304 0 1 tcp 1040 ------- 1 0.0 2.0 41 63
+ 2.58304 1 2 tcp 1040 ------- 1 0.0 2.0 41 63
r 2.60792 1 0 ack 40 ------- 1 2.0 0.0 21 64
- 2.6276 1 2 tcp 1040 ------- 1 0.0 2.0 27 41
r 2.6326 1 2 tcp 1040 ------- 1 0.0 2.0 25 38
+ 2.6326 2 1 ack 40 ------- 1 2.0 0.0 21 65
- 2.6326 2 1 ack 40 ------- 1 2.0 0.0 21 65
r 2.6408 2 1 ack 40 ------- 1 2.0 0.0 21 65
+ 2.6408 1 0 ack 40 ------- 1 2.0 0.0 21 65
- 2.6408 1 0 ack 40 ------- 1 2.0 0.0 21 65
r 2.69112 1 0 ack 40 ------- 1 2.0 0.0 21 65
- 2.7108 1 2 tcp 1040 ------- 1 0.0 2.0 29 44
r 2.7158 1 2 tcp 1040 ------- 1 0.0 2.0 27 41
+ 2.7158 2 1 ack 40 ------- 1 2.0 0.0 21 66
- 2.7158 2 1 ack 40 ------- 1 2.0 0.0 21 66
r 2.724 2 1 ack 40 ------- 1 2.0 0.0 21 66
+ 2.724 1 0 ack 40 ------- 1 2.0 0.0 21 66
- 2.724 1 0 ack 40 ------- 1 2.0 0.0 21 66
r 2.77432 1 0 ack 40 ------- 1 2.0 0.0 21 66
+ 2.77432 0 1 tcp 1040 ---A--- 1 0.0 2.0 22 67
- 2.77432 0 1 tcp 1040 ---A--- 1 0.0 2.0 22 67
- 2.794 1 2 tcp 1040 ------- 1 0.0 2.0 31 47
r 2.799 1 2 tcp 1040 ------- 1 0.0 2.0 29 44
+ 2.799 2 1 ack 40 ------- 1 2.0 0.0 21 68
- 2.799 2 1 ack 40 ------- 1 2.0 0.0 21 68
r 2.8072 2 1 ack 40 ------- 1 2.0 0.0 21 68
+ 2.8072 1 0 ack 40 ------- 1 2.0 0.0 21 68
- 2.8072 1 0 ack 40 ------- 1 2.0 0.0 21 68
r 2.83264 0 1 tcp 1040 ---A--- 1 0.0 2.0 22 67
+ 2.83264 1 2 tcp 1040 ---A--- 1 0.0 2.0 22 67
r 2.85752 1 0 ack 40 ------- 1 2.0 0.0 21 68
- 2.8772 1 2 tcp 1040 ------- 1 0.0 2.0 33 50
r 2.8822 1 2 tcp 1040 ------- 1 0.0 2.0 31 47
+ 2.8822 2 1 ack 40 ------- 1 2.0 0.0 21 69
- 2.8822 2 1 ack 40 ------- 1 2.0 0.0 21 69
r 2.8904 2 1 ack 40 ------- 1 2.0 0.0 21 69
+ 2.8904 1 0 ack 40 ------- 1 2.0 0.0 21 69
- 2.8904 1 0 ack 40 ------- 1 2.0 0.0 21 69
r 2.94072 1 0 ack 40 ------- 1 2.0 0.0 21 69
- 2.9604 1 2 tcp 1040 ------- 1 0.0 2.0 35 53
r 2.9654 1 2 tcp 1040 ------- 1 0.0 2.0 33 50
+ 2.9654 2 1 ack 40 ------- 1 2.0 0.0 21 70
- 2.9654 2 1 ack 40 ------- 1 2.0 0.0 21 70
r 2.9736 2 1 ack 40 ------- 1 2.0 0.0 21 70
+ 2.9736 1 0 ack 40 ------- 1 2.0 0.0 21 70
- 2.9736 1 0 ack 40 ------- 1 2.0 0.0 21 70
r 3.02392 1 0 ack 40 ------- 1 2.0 0.0 21 70
- 3.0436 1 2 tcp 1040 ------- 1 0.0 2.0 37 56
r 3.0486 1 2 tcp 1040 ------- 1 0.0 2.0 35 53
+ 3.0486 2 1 ack 40 ------- 1 2.0 0.0 21 71
- 3.0486 2 1 ack 40 ------- 1 2.0 0.0 21 71
r 3.0568 2 1 ack 40 ------- 1 2.0 0.0 21 71
+ 3.0568 1 0 ack 40 ------- 1 2.0 0.0 21 71
- 3.0568 1 0 ack 40 ------- 1 2.0 0.0 21 71
r 3.10712 1 0 ack 40 ------- 1 2.0 0.0 21 71
- 3.1268 1 2 tcp 1040 ------- 1 0.0 2.0 39 59
r 3.1318 1 2 tcp 1040 ------- 1 0.0 2.0 37 56
+ 3.1318 2 1 ack 40 ------- 1 2.0 0.0 21 72
- 3.1318 2 1 ack 40 ------- 1 2.0 0.0 21 72
r 3.14 2 1 ack 40 ------- 1 2.0 0.0 21 72
+ 3.14 1 0 ack 40 ------- 1 2.0 0.0 21 72
- 3.14 1 0 ack 40 ------- 1 2.0 0.0 21 72
r 3.19032 1 0 ack 40 ------- 1 2.0 0.0 21 72
- 3.21 1 2 tcp 1040 ------- 1 0.0 2.0 40 61
r 3.215 1 2 tcp 1040 ------- 1 0.0 2.0 39 59
+ 3.215 2 1 ack 40 ------- 1 2.0 0.0 21 73
- 3.215 2 1 ack 40 ------- 1 2.0 0.0 21 73
r 3.2232 2 1 ack 40 ------- 1 2.0 0.0 21 73
+ 3.2232 1 0 ack 40 ------- 1 2.0 0.0 21 73
- 3.2232 1 0 ack 40 ------- 1 2.0 0.0 21 73
r 3.27352 1 0 ack 40 ------- 1 2.0 0.0 21 73
- 3.2932 1 2 tcp 1040 ------- 1 0.0 2.0 41 63
r 3.2982 1 2 tcp 1040 ------- 1 0.0 2.0 40 61
+ 3.2982 2 1 ack 40 ------- 1 2.0 0.0 21 74
- 3.2982 2 1 ack 40 ------- 1 2.0 0.0 21 74
r 3.3064 2 1 ack 40 ------- 1 2.0 0.0 21 74
+ 3.3064 1 0 ack 40 ------- 1 2.0 0.0 21 74
- 3.3064 1 0 ack 40 ------- 1 2.0 0.0 21 74
r 3.35672 1 0 ack 40 ------- 1 2.0 0.0 21 74
- 3.3764 1 2 tcp 1040 ---A--- 1 0.0 2.0 22 67
r 3.3814 1 2 tcp 1040 ------- 1 0.0 2.0 41 63
+ 3.3814 2 1 ack 40 ------- 1 2.0 0.0 21 75
- 3.3814 2 1 ack 40 ------- 1 2.0 0.0 21 75
r 3.3896 2 1 ack 40 ------- 1 2.0 0.0 21 75
+ 3.3896 1 0 ack 40 ------- 1 2.0 0.0 21 75
- 3.3896 1 0 ack 40 ------- 1 2.0 0.0 21 75
r 3.43992 1 0 ack 40 ------- 1 2.0 0.0 21 75
r 3.4646 1 2 tcp 1040 ---A--- 1 0.0 2.0 22 67
+ 3.4646 2 1 ack 40 ------- 1 2.0 0.0 23 76
- 3.4646 2 1 ack 40 ------- 1 2.0 0.0 23 76
r 3.4728 2 1 ack 40 ------- 1 2.0 0.0 23 76
+ 3.4728 1 0 ack 40 ------- 1 2.0 0.0 23 76
- 3.4728 1 0 ack 40 ------- 1 2.0 0.0 23 76
r 3.52312 1 0 ack 40 ------- 1 2.0 0.0 23 76
+ 3.52312 0 1 tcp 1040 ------- 1 0.0 2.0 24 77
- 3.52312 0 1 tcp 1040 ------- 1 0.0 2.0 24 77
+ 3.52312 0 1 tcp 1040 ------- 1 0.0 2.0 25 78
- 3.53144 0 1 tcp 1040 ------- 1 0.0 2.0 25 78
r 3.58144 0 1 tcp 1040 ------- 1 0.0 2.0 24 77
+ 3.58144 1 2 tcp 1040 ------- 1 0.0 2.0 24 77
- 3.58144 1 2 tcp 1040 ------- 1 0.0 2.0 24 77
r 3.58976 0 1 tcp 1040 ------- 1 0.0 2.0 25 78
+ 3.58976 1 2 tcp 1040 ------- 1 0.0 2.0 25 78
- 3.66464 1 2 tcp 1040 ------- 1 0.0 2.0 25 78
r 3.66964 1 2 tcp 1040 ------- 1 0.0 2.0 24 77
+ 3.66964 2 1 ack 40 ------- 1 2.0 0.0 25 79
- 3.66964 2 1 ack 40 ------- 1 2.0 0.0 25 79
r 3.67784 2 1 ack 40 ------- 1 2.0 0.0 25 79
+ 3.67784 1 0 ack 40 ------- 1 2.0 0.0 25 79
- 3.67784 1 0 ack 40 ------- 1 2.0 0.0 25 79
r 3.72816 1 0 ack 40 ------- 1 2.0 0.0 25 79
+ 3.72816 0 1 tcp 1040 ------- 1 0.0 2.0 26 80
- 3.72816 0 1 tcp 1040 ------- 1 0.0 2.0 26 80
+ 3.72816 0 1 tcp 1040 ------- 1 0.0 2.0 27 81
+ 3.72816 0 1 tcp 1040 ------- 1 0.0 2.0 28 82
- 3.73648 0 1 tcp 1040 ------- 1 0.0 2.0 27 81
- 3.7448 0 1 tcp 1040 ------- 1 0.0 2.0 28 82
r 3.75284 1 2 tcp 1040 ------- 1 0.0 2.0 25 78
+ 3.75284 2 1 ack 40 ------- 1 2.0 0.0 25 83
- 3.75284 2 1 ack 40 ------- 1 2.0 0.0 25 83
r 3.76104 2 1 ack 40 ------- 1 2.0 0.0 25 83
+ 3.76104 1 0 ack 40 ------- 1 2.0 0.0 25 83
- 3.76104 1 0 ack 40 ------- 1 2.0 0.0 25 83
r 3.78648 0 1 tcp 1040 ------- 1 0.0 2.0 26 80
+ 3.78648 1 2 tcp 1040 ------- 1 0.0 2.0 26 80
- 3.78648 1 2 tcp 1040 ------- 1 0.0 2.0 26 80
r 3.7948 0 1 tcp 1040 ------- 1 0.0 2.0 27 81
+ 3.7948 1 2 tcp 1040 ------- 1 0.0 2.0 27 81
r 3.80312 0 1 tcp 1040 ------- 1 0.0 2.0 28 82
+ 3.80312 1 2 tcp 1040 ------- 1 0.0 2.0 28 82
r 3.81136 1 0 ack 40 ------- 1 2.0 0.0 25 83
+ 3.81136 0 1 tcp 1040 ------- 1 0.0 2.0 29 84
- 3.81136 0 1 tcp 1040 ------- 1 0.0 2.0 29 84
- 3.86968 1 2 tcp 1040 ------- 1 0.0 2.0 27 81
r 3.86968 0 1 tcp 1040 ------- 1 0.0 2.0 29 84
+ 3.86968 1 2 tcp 1040 ------- 1 0.0 2.0 29 84
r 3.87468 1 2 tcp 1040 ------- 1 0.0 2.0 26 80
+ 3.87468 2 1 ack 40 ------- 1 2.0 0.0 27 85
- 3.87468 2 1 ack 40 ------- 1 2.0 0.0 27 85
r 3.88288 2 1 ack 40 ------- 1 2.0 0.0 27 85
+ 3.88288 1 0 ack 40 ------- 1 2.0 0.0 27 85
- 3.88288 1 0 ack 40 ------- 1 2.0 0.0 27 85
r 3.9332 1 0 ack 40 ------- 1 2.0 0.0 27 85
+ 3.9332 0 1 tcp 1040 ------- 1 0.0 2.0 30 86
- 3.9332 0 1 tcp 1040 ------- 1 0.0 2.0 30 86
+ 3.9332 0 1 tcp 1040 ------- 1 0.0 2.0 31 87
- 3.94152 0 1 tcp 1040 ------- 1 0.0 2.0 31 87
- 3.95288 1 2 tcp 1040 ------- 1 0.0 2.0 28 82
r 3.95788 1 2 tcp 1040 ------- 1 0.0 2.0 27 81
+ 3.95788 2 1 ack 40 ------- 1 2.0 0.0 27 88
- 3.95788 2 1 ack 40 ------- 1 2.0 0.0 27 88
r 3.96608 2 1 ack 40 ------- 1 2.0 0.0 27 88
+ 3.96608 1 0 ack 40 ------- 1 2.0 0.0 27 88
- 3.96608 1 0 ack 40 ------- 1 2.0 0.0 27 88
r 3.99152 0 1 tcp 1040 ------- 1 0.0 2.0 30 86
+ 3.99152 1 2 tcp 1040 ------- 1 0.0 2.0 30 86
r 3.99984 0 1 tcp 1040 ------- 1 0.0 2.0 31 87
+ 3.99984 1 2 tcp 1040 ------- 1 0.0 2.0 31 87
r 4.0164 1 0 ack 40 ------- 1 2.0 0.0 27 88
+ 4.0164 0 1 tcp 1040 ------- 1 0.0 2.0 32 89
- 4.0164 0 1 tcp 1040 ------- 1 0.0 2.0 32 89
- 4.03608 1 2 tcp 1040 ------- 1 0.0 2.0 29 84
r 4.04108 1 2 tcp 1040 ------- 1 0.0 2.0 28 82
+ 4.04108 2 1 ack 40 ------- 1 2.0 0.0 29 90
- 4.04108 2 1 ack 40 ------- 1 2.0 0.0 29 90
r 4.04928 2 1 ack 40 ------- 1 2.0 0.0 29 90
+ 4.04928 1 0 ack 40 ------- 1 2.0 0.0 29 90
- 4.04928 1 0 ack 40 ------- 1 2.0 0.0 29 90
r 4.07472 0 1 tcp 1040 ------- 1 0.0 2.0 32 89
+ 4.07472 1 2 tcp 1040 ------- 1 0.0 2.0 32 89
r 4.0996 1 0 ack 40 ------- 1 2.0 0.0 29 90
+ 4.0996 0 1 tcp 1040 ------- 1 0.0 2.0 33 91
- 4.0996 0 1 tcp 1040 ------- 1 0.0 2.0 33 91
+ 4.0996 0 1 tcp 1040 ------- 1 0.0 2.0 34 92
- 4.10792 0 1 tcp 1040 ------- 1 0.0 2.0 34 92
- 4.11928 1 2 tcp 1040 ------- 1 0.0 2.0 30 86
r 4.12428 1 2 tcp 1040 ------- 1 0.0 2.0 29 84
+ 4.12428 2 1 ack 40 ------- 1 2.0 0.0 29 93
- 4.12428 2 1 ack 40 ------- 1 2.0 0.0 29 93
r 4.13248 2 1 ack 40 ------- 1 2.0 0.0 29 93
+ 4.13248 1 0 ack 40 ------- 1 2.0 0.0 29 93
- 4.13248 1 0 ack 40 ------- 1 2.0 0.0 29 93
r 4.15792 0 1 tcp 1040 ------- 1 0.0 2.0 33 91
+ 4.15792 1 2 tcp 1040 ------- 1 0.0 2.0 33 91
r 4.16624 0 1 tcp 1040 ------- 1 0.0 2.0 34 92
+ 4.16624 1 2 tcp 1040 ------- 1 0.0 2.0 34 92
r 4.1828 1 0 ack 40 ------- 1 2.0 0.0 29 93
+ 4.1828 0 1 tcp 1040 ------- 1 0.0 2.0 35 94
- 4.1828 0 1 tcp 1040 ------- 1 0.0 2.0 35 94
- 4.20248 1 2 tcp 1040 ------- 1 0.0 2.0 31 87
r 4.20748 1 2 tcp 1040 ------- 1 0.0 2.0 30 86
+ 4.20748 2 1 ack 40 ------- 1 2.0 0.0 31 95
- 4.20748 2 1 ack 40 ------- 1 2.0 0.0 31 95
r 4.21568 2 1 ack 40 ------- 1 2.0 0.0 31 95
+ 4.21568 1 0 ack 40 ------- 1 2.0 0.0 31 95
- 4.21568 1 0 ack 40 ------- 1 2.0 0.0 31 95
r 4.24112 0 1 tcp 1040 ------- 1 0.0 2.0 35 94
+ 4.24112 1 2 tcp 1040 ------- 1 0.0 2.0 35 94
r 4.266 1 0 ack 40 ------- 1 2.0 0.0 31 95
+ 4.266 0 1 tcp 1040 ------- 1 0.0 2.0 36 96
- 4.266 0 1 tcp 1040 ------- 1 0.0 2.0 36 96
+ 4.266 0 1 tcp 1040 ------- 1 0.0 2.0 37 97
- 4.27432 0 1 tcp 1040 ------- 1 0.0 2.0 37 97
- 4.28568 1 2 tcp 1040 ------- 1 0.0 2.0 32 89
r 4.29068 1 2 tcp 1040 ------- 1 0.0 2.0 31 87
+ 4.29068 2 1 ack 40 ------- 1 2.0 0.0 31 98
- 4.29068 2 1 ack 40 ------- 1 2.0 0.0 31 98
r 4.29888 2 1 ack 40 ------- 1 2.0 0.0 31 98
+ 4.29888 1 0 ack 40 ------- 1 2.0 0.0 31 98
- 4.29888 1 0 ack 40 ------- 1 2.0 0.0 31 98
r 4.32432 0 1 tcp 1040 ------- 1 0.0 2.0 36 96
+ 4.32432 1 2 tcp 1040 ------- 1 0.0 2.0 36 96
r 4.33264 0 1 tcp 1040 ------- 1 0.0 2.0 37 97
+ 4.33264 1 2 tcp 1040 ------- 1 0.0 2.0 37 97
r 4.3492 1 0 ack 40 ------- 1 2.0 0.0 31 98
+ 4.3492 0 1 tcp 1040 ------- 1 0.0 2.0 38 99
- 4.3492 0 1 tcp 1040 ------- 1 0.0 2.0 38 99
- 4.36888 1 2 tcp 1040 ------- 1 0.0 2.0 33 91
r 4.37388 1 2 tcp 1040 ------- 1 0.0 2.0 32 89
+ 4.37388 2 1 ack 40 ------- 1 2.0 0.0 33 100
- 4.37388 2 1 ack 40 ------- 1 2.0 0.0 33 100
r 4.38208 2 1 ack 40 ------- 1 2.0 0.0 33 100
+ 4.38208 1 0 ack 40 ------- 1 2.0 0.0 33 100
- 4.38208 1 0 ack 40 ------- 1 2.0 0.0 33 100
r 4.40752 0 1 tcp 1040 ------- 1 0.0 2.0 38 99
+ 4.40752 1 2 tcp 1040 ------- 1 0.0 2.0 38 99
r 4.4324 1 0 ack 40 ------- 1 2.0 0.0 33 100
+ 4.4324 0 1 tcp 1040 ------- 1 0.0 2.0 39 101
- 4.4324 0 1 tcp 1040 ------- 1 0.0 2.0 39 101
+ 4.4324 0 1 tcp 1040 ------- 1 0.0 2.0 40 102
- 4.44072 0 1 tcp 1040 ------- 1 0.0 2.0 40 102
- 4.45208 1 2 tcp 1040 ------- 1 0.0 2.0 34 92
r 4.45708 1 2 tcp 1040 ------- 1 0.0 2.0 33 91
+ 4.45708 2 1 ack 40 ------- 1 2.0 0.0 33 103
- 4.45708 2 1 ack 40 ------- 1 2.0 0.0 33 103
r 4.46528 2 1 ack 40 ------- 1 2.0 0.0 33 103
+ 4.46528 1 0 ack 40 ------- 1 2.0 0.0 33 103
- 4.46528 1 0 ack 40 ------- 1 2.0 0.0 33 103
r 4.49072 0 1 tcp 1040 ------- 1 0.0 2.0 39 101
+ 4.49072 1 2 tcp 1040 ------- 1 0.0 2.0 39 101
r 4.49904 0 1 tcp 1040 ------- 1 0.0 2.0 40 102
+ 4.49904 1 2 tcp 1040 ------- 1 0.0 2.0 40 102
r 4.5156 1 0 ack 40 ------- 1 2.0 0.0 33 103
+ 4.5156 0 1 tcp 1040 ------- 1 0.0 2.0 41 104
- 4.5156 0 1 tcp 1040 ------- 1 0.0 2.0 41 104
- 4.53528 1 2 tcp 1040 ------- 1 0.0 2.0 35 94
r 4.54028 1 2 tcp 1040 ------- 1 0.0 2.0 34 92
+ 4.54028 2 1 ack 40 ------- 1 2.0 0.0 35 105
- 4.54028 2 1 ack 40 ------- 1 2.0 0.0 35 105
r 4.54848 2 1 ack 40 ------- 1 2.0 0.0 35 105
+ 4.54848 1 0 ack 40 ------- 1 2.0 0.0 35 105
- 4.54848 1 0 ack 40 ------- 1 2.0 0.0 35 105
r 4.57392 0 1 tcp 1040 ------- 1 0.0 2.0 41 104
+ 4.57392 1 2 tcp 1040 ------- 1 0.0 2.0 41 104
r 4.5988 1 0 ack 40 ------- 1 2.0 0.0 35 105
+ 4.5988 0 1 tcp 1040 ------- 1 0.0 2.0 42 106
- 4.5988 0 1 tcp 1040 ------- 1 0.0 2.0 42 106
+ 4.5988 0 1 tcp 1040 ------- 1 0.0 2.0 43 107
- 4.60712 0 1 tcp 1040 ------- 1 0.0 2.0 43 107
- 4.61848 1 2 tcp 1040 ------- 1 0.0 2.0 36 96
r 4.62348 1 2 tcp 1040 ------- 1 0.0 2.0 35 94
+ 4.62348 2 1 ack 40 ------- 1 2.0 0.0 35 108
- 4.62348 2 1 ack 40 ------- 1 2.0 0.0 35 108
r 4.63168 2 1 ack 40 ------- 1 2.0 0.0 35 108
+ 4.63168 1 0 ack 40 ------- 1 2.0 0.0 35 108
- 4.63168 1 0 ack 40 ------- 1 2.0 0.0 35 108
r 4.65712 0 1 tcp 1040 ------- 1 0.0 2.0 42 106
+ 4.65712 1 2 tcp 1040 ------- 1 0.0 2.0 42 106
r 4.66544 0 1 tcp 1040 ------- 1 0.0 2.0 43 107
+ 4.66544 1 2 tcp 1040 ------- 1 0.0 2.0 43 107
r 4.682 1 0 ack 40 ------- 1 2.0 0.0 35 108
+ 4.682 0 1 tcp 1040 ------- 1 0.0 2.0 44 109
- 4.682 0 1 tcp 1040 ------- 1 0.0 2.0 44 109
- 4.70168 1 2 tcp 1040 ------- 1 0.0 2.0 37 97
r 4.70668 1 2 tcp 1040 ------- 1 0.0 2.0 36 96
+ 4.70668 2 1 ack 40 ------- 1 2.0 0.0 37 110
- 4.70668 2 1 ack 40 ------- 1 2.0 0.0 37 110
r 4.71488 2 1 ack 40 ------- 1 2.0 0.0 37 110
+ 4.71488 1 0 ack 40 ------- 1 2.0 0.0 37 110
- 4.71488 1 0 ack 40 ------- 1 2.0 0.0 37 110
r 4.74032 0 1 tcp 1040 ------- 1 0.0 2.0 44 109
+ 4.74032 1 2 tcp 1040 ------- 1 0.0 2.0 44 109
r 4.7652 1 0 ack 40 ------- 1 2.0 0.0 37 110
+ 4.7652 0 1 tcp 1040 ------- 1 0.0 2.0 45 111
- 4.7652 0 1 tcp 1040 ------- 1 0.0 2.0 45 111
+ 4.7652 0 1 tcp 1040 ------- 1 0.0 2.0 46 112
- 4.77352 0 1 tcp 1040 ------- 1 0.0 2.0 46 112
- 4.78488 1 2 tcp 1040 ------- 1 0.0 2.0 38 99
r 4.78988 1 2 tcp 1040 ------- 1 0.0 2.0 37 97
+ 4.78988 2 1 ack 40 ------- 1 2.0 0.0 37 113
- 4.78988 2 1 ack 40 ------- 1 2.0 0.0 37 113
r 4.79808 2 1 ack 40 ------- 1 2.0 0.0 37 113
+ 4.79808 1 0 ack 40 ------- 1 2.0 0.0 37 113
- 4.79808 1 0 ack 40 ------- 1 2.0 0.0 37 113
r 4.82352 0 1 tcp 1040 ------- 1 0.0 2.0 45 111
+ 4.82352 1 2 tcp 1040 ------- 1 0.0 2.0 45 111
r 4.83184 0 1 tcp 1040 ------- 1 0.0 2.0 46 112
+ 4.83184 1 2 tcp 1040 ------- 1 0.0 2.0 46 112
r 4.8484 1 0 ack 40 ------- 1 2.0 0.0 37 113
+ 4.8484 0 1 tcp 1040 ------- 1 0.0 2.0 47 114
- 4.8484 0 1 tcp 1040 ------- 1 0.0 2.0 47 114